# vtk DataFile Version 2.0
generated by CFD-lab course output (written by Tobias Neckel) 
ASCII

DATASET STRUCTURED_GRID
DIMENSIONS  51 51 1 
POINTS 2601 float

0.000000 0.000000 0
0.020000 0.000000 0
0.040000 0.000000 0
0.060000 0.000000 0
0.080000 0.000000 0
0.100000 0.000000 0
0.120000 0.000000 0
0.140000 0.000000 0
0.160000 0.000000 0
0.180000 0.000000 0
0.200000 0.000000 0
0.220000 0.000000 0
0.240000 0.000000 0
0.260000 0.000000 0
0.280000 0.000000 0
0.300000 0.000000 0
0.320000 0.000000 0
0.340000 0.000000 0
0.360000 0.000000 0
0.380000 0.000000 0
0.400000 0.000000 0
0.420000 0.000000 0
0.440000 0.000000 0
0.460000 0.000000 0
0.480000 0.000000 0
0.500000 0.000000 0
0.520000 0.000000 0
0.540000 0.000000 0
0.560000 0.000000 0
0.580000 0.000000 0
0.600000 0.000000 0
0.620000 0.000000 0
0.640000 0.000000 0
0.660000 0.000000 0
0.680000 0.000000 0
0.700000 0.000000 0
0.720000 0.000000 0
0.740000 0.000000 0
0.760000 0.000000 0
0.780000 0.000000 0
0.800000 0.000000 0
0.820000 0.000000 0
0.840000 0.000000 0
0.860000 0.000000 0
0.880000 0.000000 0
0.900000 0.000000 0
0.920000 0.000000 0
0.940000 0.000000 0
0.960000 0.000000 0
0.980000 0.000000 0
1.000000 0.000000 0
0.000000 0.020000 0
0.020000 0.020000 0
0.040000 0.020000 0
0.060000 0.020000 0
0.080000 0.020000 0
0.100000 0.020000 0
0.120000 0.020000 0
0.140000 0.020000 0
0.160000 0.020000 0
0.180000 0.020000 0
0.200000 0.020000 0
0.220000 0.020000 0
0.240000 0.020000 0
0.260000 0.020000 0
0.280000 0.020000 0
0.300000 0.020000 0
0.320000 0.020000 0
0.340000 0.020000 0
0.360000 0.020000 0
0.380000 0.020000 0
0.400000 0.020000 0
0.420000 0.020000 0
0.440000 0.020000 0
0.460000 0.020000 0
0.480000 0.020000 0
0.500000 0.020000 0
0.520000 0.020000 0
0.540000 0.020000 0
0.560000 0.020000 0
0.580000 0.020000 0
0.600000 0.020000 0
0.620000 0.020000 0
0.640000 0.020000 0
0.660000 0.020000 0
0.680000 0.020000 0
0.700000 0.020000 0
0.720000 0.020000 0
0.740000 0.020000 0
0.760000 0.020000 0
0.780000 0.020000 0
0.800000 0.020000 0
0.820000 0.020000 0
0.840000 0.020000 0
0.860000 0.020000 0
0.880000 0.020000 0
0.900000 0.020000 0
0.920000 0.020000 0
0.940000 0.020000 0
0.960000 0.020000 0
0.980000 0.020000 0
1.000000 0.020000 0
0.000000 0.040000 0
0.020000 0.040000 0
0.040000 0.040000 0
0.060000 0.040000 0
0.080000 0.040000 0
0.100000 0.040000 0
0.120000 0.040000 0
0.140000 0.040000 0
0.160000 0.040000 0
0.180000 0.040000 0
0.200000 0.040000 0
0.220000 0.040000 0
0.240000 0.040000 0
0.260000 0.040000 0
0.280000 0.040000 0
0.300000 0.040000 0
0.320000 0.040000 0
0.340000 0.040000 0
0.360000 0.040000 0
0.380000 0.040000 0
0.400000 0.040000 0
0.420000 0.040000 0
0.440000 0.040000 0
0.460000 0.040000 0
0.480000 0.040000 0
0.500000 0.040000 0
0.520000 0.040000 0
0.540000 0.040000 0
0.560000 0.040000 0
0.580000 0.040000 0
0.600000 0.040000 0
0.620000 0.040000 0
0.640000 0.040000 0
0.660000 0.040000 0
0.680000 0.040000 0
0.700000 0.040000 0
0.720000 0.040000 0
0.740000 0.040000 0
0.760000 0.040000 0
0.780000 0.040000 0
0.800000 0.040000 0
0.820000 0.040000 0
0.840000 0.040000 0
0.860000 0.040000 0
0.880000 0.040000 0
0.900000 0.040000 0
0.920000 0.040000 0
0.940000 0.040000 0
0.960000 0.040000 0
0.980000 0.040000 0
1.000000 0.040000 0
0.000000 0.060000 0
0.020000 0.060000 0
0.040000 0.060000 0
0.060000 0.060000 0
0.080000 0.060000 0
0.100000 0.060000 0
0.120000 0.060000 0
0.140000 0.060000 0
0.160000 0.060000 0
0.180000 0.060000 0
0.200000 0.060000 0
0.220000 0.060000 0
0.240000 0.060000 0
0.260000 0.060000 0
0.280000 0.060000 0
0.300000 0.060000 0
0.320000 0.060000 0
0.340000 0.060000 0
0.360000 0.060000 0
0.380000 0.060000 0
0.400000 0.060000 0
0.420000 0.060000 0
0.440000 0.060000 0
0.460000 0.060000 0
0.480000 0.060000 0
0.500000 0.060000 0
0.520000 0.060000 0
0.540000 0.060000 0
0.560000 0.060000 0
0.580000 0.060000 0
0.600000 0.060000 0
0.620000 0.060000 0
0.640000 0.060000 0
0.660000 0.060000 0
0.680000 0.060000 0
0.700000 0.060000 0
0.720000 0.060000 0
0.740000 0.060000 0
0.760000 0.060000 0
0.780000 0.060000 0
0.800000 0.060000 0
0.820000 0.060000 0
0.840000 0.060000 0
0.860000 0.060000 0
0.880000 0.060000 0
0.900000 0.060000 0
0.920000 0.060000 0
0.940000 0.060000 0
0.960000 0.060000 0
0.980000 0.060000 0
1.000000 0.060000 0
0.000000 0.080000 0
0.020000 0.080000 0
0.040000 0.080000 0
0.060000 0.080000 0
0.080000 0.080000 0
0.100000 0.080000 0
0.120000 0.080000 0
0.140000 0.080000 0
0.160000 0.080000 0
0.180000 0.080000 0
0.200000 0.080000 0
0.220000 0.080000 0
0.240000 0.080000 0
0.260000 0.080000 0
0.280000 0.080000 0
0.300000 0.080000 0
0.320000 0.080000 0
0.340000 0.080000 0
0.360000 0.080000 0
0.380000 0.080000 0
0.400000 0.080000 0
0.420000 0.080000 0
0.440000 0.080000 0
0.460000 0.080000 0
0.480000 0.080000 0
0.500000 0.080000 0
0.520000 0.080000 0
0.540000 0.080000 0
0.560000 0.080000 0
0.580000 0.080000 0
0.600000 0.080000 0
0.620000 0.080000 0
0.640000 0.080000 0
0.660000 0.080000 0
0.680000 0.080000 0
0.700000 0.080000 0
0.720000 0.080000 0
0.740000 0.080000 0
0.760000 0.080000 0
0.780000 0.080000 0
0.800000 0.080000 0
0.820000 0.080000 0
0.840000 0.080000 0
0.860000 0.080000 0
0.880000 0.080000 0
0.900000 0.080000 0
0.920000 0.080000 0
0.940000 0.080000 0
0.960000 0.080000 0
0.980000 0.080000 0
1.000000 0.080000 0
0.000000 0.100000 0
0.020000 0.100000 0
0.040000 0.100000 0
0.060000 0.100000 0
0.080000 0.100000 0
0.100000 0.100000 0
0.120000 0.100000 0
0.140000 0.100000 0
0.160000 0.100000 0
0.180000 0.100000 0
0.200000 0.100000 0
0.220000 0.100000 0
0.240000 0.100000 0
0.260000 0.100000 0
0.280000 0.100000 0
0.300000 0.100000 0
0.320000 0.100000 0
0.340000 0.100000 0
0.360000 0.100000 0
0.380000 0.100000 0
0.400000 0.100000 0
0.420000 0.100000 0
0.440000 0.100000 0
0.460000 0.100000 0
0.480000 0.100000 0
0.500000 0.100000 0
0.520000 0.100000 0
0.540000 0.100000 0
0.560000 0.100000 0
0.580000 0.100000 0
0.600000 0.100000 0
0.620000 0.100000 0
0.640000 0.100000 0
0.660000 0.100000 0
0.680000 0.100000 0
0.700000 0.100000 0
0.720000 0.100000 0
0.740000 0.100000 0
0.760000 0.100000 0
0.780000 0.100000 0
0.800000 0.100000 0
0.820000 0.100000 0
0.840000 0.100000 0
0.860000 0.100000 0
0.880000 0.100000 0
0.900000 0.100000 0
0.920000 0.100000 0
0.940000 0.100000 0
0.960000 0.100000 0
0.980000 0.100000 0
1.000000 0.100000 0
0.000000 0.120000 0
0.020000 0.120000 0
0.040000 0.120000 0
0.060000 0.120000 0
0.080000 0.120000 0
0.100000 0.120000 0
0.120000 0.120000 0
0.140000 0.120000 0
0.160000 0.120000 0
0.180000 0.120000 0
0.200000 0.120000 0
0.220000 0.120000 0
0.240000 0.120000 0
0.260000 0.120000 0
0.280000 0.120000 0
0.300000 0.120000 0
0.320000 0.120000 0
0.340000 0.120000 0
0.360000 0.120000 0
0.380000 0.120000 0
0.400000 0.120000 0
0.420000 0.120000 0
0.440000 0.120000 0
0.460000 0.120000 0
0.480000 0.120000 0
0.500000 0.120000 0
0.520000 0.120000 0
0.540000 0.120000 0
0.560000 0.120000 0
0.580000 0.120000 0
0.600000 0.120000 0
0.620000 0.120000 0
0.640000 0.120000 0
0.660000 0.120000 0
0.680000 0.120000 0
0.700000 0.120000 0
0.720000 0.120000 0
0.740000 0.120000 0
0.760000 0.120000 0
0.780000 0.120000 0
0.800000 0.120000 0
0.820000 0.120000 0
0.840000 0.120000 0
0.860000 0.120000 0
0.880000 0.120000 0
0.900000 0.120000 0
0.920000 0.120000 0
0.940000 0.120000 0
0.960000 0.120000 0
0.980000 0.120000 0
1.000000 0.120000 0
0.000000 0.140000 0
0.020000 0.140000 0
0.040000 0.140000 0
0.060000 0.140000 0
0.080000 0.140000 0
0.100000 0.140000 0
0.120000 0.140000 0
0.140000 0.140000 0
0.160000 0.140000 0
0.180000 0.140000 0
0.200000 0.140000 0
0.220000 0.140000 0
0.240000 0.140000 0
0.260000 0.140000 0
0.280000 0.140000 0
0.300000 0.140000 0
0.320000 0.140000 0
0.340000 0.140000 0
0.360000 0.140000 0
0.380000 0.140000 0
0.400000 0.140000 0
0.420000 0.140000 0
0.440000 0.140000 0
0.460000 0.140000 0
0.480000 0.140000 0
0.500000 0.140000 0
0.520000 0.140000 0
0.540000 0.140000 0
0.560000 0.140000 0
0.580000 0.140000 0
0.600000 0.140000 0
0.620000 0.140000 0
0.640000 0.140000 0
0.660000 0.140000 0
0.680000 0.140000 0
0.700000 0.140000 0
0.720000 0.140000 0
0.740000 0.140000 0
0.760000 0.140000 0
0.780000 0.140000 0
0.800000 0.140000 0
0.820000 0.140000 0
0.840000 0.140000 0
0.860000 0.140000 0
0.880000 0.140000 0
0.900000 0.140000 0
0.920000 0.140000 0
0.940000 0.140000 0
0.960000 0.140000 0
0.980000 0.140000 0
1.000000 0.140000 0
0.000000 0.160000 0
0.020000 0.160000 0
0.040000 0.160000 0
0.060000 0.160000 0
0.080000 0.160000 0
0.100000 0.160000 0
0.120000 0.160000 0
0.140000 0.160000 0
0.160000 0.160000 0
0.180000 0.160000 0
0.200000 0.160000 0
0.220000 0.160000 0
0.240000 0.160000 0
0.260000 0.160000 0
0.280000 0.160000 0
0.300000 0.160000 0
0.320000 0.160000 0
0.340000 0.160000 0
0.360000 0.160000 0
0.380000 0.160000 0
0.400000 0.160000 0
0.420000 0.160000 0
0.440000 0.160000 0
0.460000 0.160000 0
0.480000 0.160000 0
0.500000 0.160000 0
0.520000 0.160000 0
0.540000 0.160000 0
0.560000 0.160000 0
0.580000 0.160000 0
0.600000 0.160000 0
0.620000 0.160000 0
0.640000 0.160000 0
0.660000 0.160000 0
0.680000 0.160000 0
0.700000 0.160000 0
0.720000 0.160000 0
0.740000 0.160000 0
0.760000 0.160000 0
0.780000 0.160000 0
0.800000 0.160000 0
0.820000 0.160000 0
0.840000 0.160000 0
0.860000 0.160000 0
0.880000 0.160000 0
0.900000 0.160000 0
0.920000 0.160000 0
0.940000 0.160000 0
0.960000 0.160000 0
0.980000 0.160000 0
1.000000 0.160000 0
0.000000 0.180000 0
0.020000 0.180000 0
0.040000 0.180000 0
0.060000 0.180000 0
0.080000 0.180000 0
0.100000 0.180000 0
0.120000 0.180000 0
0.140000 0.180000 0
0.160000 0.180000 0
0.180000 0.180000 0
0.200000 0.180000 0
0.220000 0.180000 0
0.240000 0.180000 0
0.260000 0.180000 0
0.280000 0.180000 0
0.300000 0.180000 0
0.320000 0.180000 0
0.340000 0.180000 0
0.360000 0.180000 0
0.380000 0.180000 0
0.400000 0.180000 0
0.420000 0.180000 0
0.440000 0.180000 0
0.460000 0.180000 0
0.480000 0.180000 0
0.500000 0.180000 0
0.520000 0.180000 0
0.540000 0.180000 0
0.560000 0.180000 0
0.580000 0.180000 0
0.600000 0.180000 0
0.620000 0.180000 0
[...]
POINT_DATA 2601 

VECTORS velocity float
0.000000 0.000000 0
0.000000 0.000000 0
-0.000000 0.000000 0
-0.000000 0.000000 0
-0.000000 0.000000 0
-0.000000 0.000000 0
0.000000 0.000000 0
0.000000 0.000000 0
0.000000 0.000000 0
0.000000 0.000000 0
0.000000 0.000000 0
-0.000000 0.000000 0
-0.000000 0.000000 0
-0.000000 0.000000 0
-0.000000 0.000000 0
-0.000000 0.000000 0
0.000000 0.000000 0
0.000000 0.000000 0
0.000000 0.000000 0
0.000000 0.000000 0
0.000000 0.000000 0
0.000000 0.000000 0
-0.000000 0.000000 0
-0.000000 0.000000 0
-0.000000 0.000000 0
-0.000000 0.000000 0
-0.000000 0.000000 0
-0.000000 0.000000 0
0.000000 0.000000 0
0.000000 0.000000 0
0.000000 0.000000 0
0.000000 0.000000 0
0.000000 0.000000 0
0.000000 0.000000 0
-0.000000 0.000000 0
-0.000000 0.000000 0
-0.000000 0.000000 0
-0.000000 0.000000 0
-0.000000 0.000000 0
0.000000 0.000000 0
0.000000 0.000000 0
0.000000 0.000000 0
0.000000 0.000000 0
0.000000 0.000000 0
0.000000 0.000000 0
0.000000 0.000000 0
0.000000 0.000000 0
-0.000000 0.000000 0
-0.000000 0.000000 0
-0.000000 0.000000 0
0.000000 0.000000 0
0.000000 -0.000000 0
-0.000006 0.000010 0
-0.000357 0.000248 0
-0.001135 0.000513 0
-0.002303 0.000733 0
-0.003770 0.000882 0
-0.005416 0.000953 0
-0.007118 0.000949 0
-0.008756 0.000876 0
-0.010226 0.000748 0
-0.011445 0.000578 0
-0.012354 0.000383 0
-0.012918 0.000176 0
-0.013123 -0.000030 0
-0.012977 -0.000227 0
-0.012497 -0.000406 0
-0.011716 -0.000562 0
-0.010674 -0.000692 0
-0.009416 -0.000794 0
-0.007989 -0.000867 0
-0.006442 -0.000912 0
-0.004822 -0.000931 0
-0.003176 -0.000925 0
-0.001544 -0.000897 0
0.000036 -0.000849 0
0.001530 -0.000786 0
0.002910 -0.000710 0
0.004157 -0.000624 0
0.005252 -0.000533 0
0.006187 -0.000438 0
0.006955 -0.000342 0
0.007554 -0.000247 0
0.007985 -0.000154 0
0.008254 -0.000066 0
0.008367 0.000017 0
0.008333 0.000095 0
0.008163 0.000167 0
0.007866 0.000232 0
0.007453 0.000292 0
0.006935 0.000346 0
0.006324 0.000393 0
0.005632 0.000434 0
0.004873 0.000466 0
0.004065 0.000488 0
0.003230 0.000494 0
0.002400 0.000479 0
0.001614 0.000435 0
0.000923 0.000352 0
0.000390 0.000226 0
0.000074 0.000074 0
0.000000 -0.000000 0
0.000000 -0.000000 0
-0.000230 0.000357 0
-0.001098 0.001128 0
-0.002649 0.001947 0
-0.004815 0.002635 0
-0.007454 0.003113 0
-0.010386 0.003348 0
-0.013412 0.003340 0
-0.016338 0.003108 0
-0.018992 0.002689 0
-0.021233 0.002128 0
-0.022958 0.001473 0
-0.024100 0.000770 0
-0.024631 0.000059 0
-0.024553 -0.000626 0
-0.023891 -0.001260 0
-0.022693 -0.001823 0
-0.021021 -0.002300 0
-0.018945 -0.002686 0
-0.016546 -0.002974 0
-0.013904 -0.003167 0
-0.011102 -0.003266 0
-0.008217 -0.003278 0
-0.005325 -0.003211 0
-0.002492 -0.003073 0
0.000219 -0.002875 0
0.002758 -0.002627 0
0.005080 -0.002342 0
0.007154 -0.002031 0
0.008955 -0.001702 0
0.010470 -0.001366 0
0.011690 -0.001030 0
0.012615 -0.000700 0
0.013251 -0.000382 0
0.013608 -0.000080 0
0.013697 0.000204 0
0.013537 0.000468 0
0.013144 0.000710 0
0.012538 0.000930 0
0.011739 0.001129 0
0.010767 0.001303 0
0.009645 0.001451 0
0.008402 0.001567 0
0.007067 0.001643 0
0.005682 0.001665 0
0.004297 0.001617 0
0.002976 0.001476 0
0.001798 0.001223 0
0.000852 0.000849 0
0.000228 0.000390 0
0.000000 -0.000000 0
0.000000 -0.000000 0
-0.000477 0.001109 0
-0.001883 0.002667 0
-0.004169 0.004230 0
-0.007221 0.005538 0
-0.010859 0.006453 0
-0.014860 0.006910 0
-0.018981 0.006899 0
-0.022984 0.006456 0
-0.026651 0.005643 0
-0.029804 0.004544 0
-0.032304 0.003251 0
-0.034062 0.001850 0
-0.035032 0.000423 0
-0.035207 -0.000966 0
-0.034612 -0.002265 0
-0.033298 -0.003433 0
-0.031337 -0.004440 0
-0.028814 -0.005269 0
-0.025825 -0.005908 0
-0.022472 -0.006357 0
-0.018858 -0.006618 0
-0.015085 -0.006702 0
-0.011253 -0.006621 0
-0.007452 -0.006393 0
-0.003764 -0.006036 0
-0.000264 -0.005571 0
0.002988 -0.005020 0
0.005938 -0.004408 0
0.008550 -0.003754 0
0.010797 -0.003076 0
0.012664 -0.002392 0
0.014145 -0.001716 0
0.015241 -0.001058 0
0.015962 -0.000429 0
0.016322 0.000166 0
0.016340 0.000720 0
0.016038 0.001231 0
0.015441 0.001698 0
0.014576 0.002117 0
0.013471 0.002486 0
0.012158 0.002799 0
0.010671 0.003045 0
0.009054 0.003207 0
0.007356 0.003264 0
0.005640 0.003184 0
0.003983 0.002933 0
0.002477 0.002476 0
0.001228 0.001796 0
0.000356 0.000926 0
0.000000 -0.000000 0
0.000000 0.000000 0
-0.000690 0.002240 0
-0.002585 0.004821 0
-0.005540 0.007285 0
-0.009383 0.009324 0
-0.013897 0.010751 0
-0.018829 0.011470 0
-0.023905 0.011464 0
-0.028858 0.010779 0
-0.033443 0.009509 0
-0.037452 0.007781 0
-0.040725 0.005731 0
-0.043153 0.003498 0
-0.044673 0.001204 0
-0.045268 -0.001046 0
-0.044956 -0.003168 0
-0.043787 -0.005097 0
-0.041830 -0.006785 0
-0.039176 -0.008198 0
-0.035926 -0.009316 0
-0.032193 -0.010134 0
-0.028092 -0.010652 0
-0.023739 -0.010883 0
-0.019248 -0.010845 0
-0.014728 -0.010562 0
-0.010280 -0.010063 0
-0.005994 -0.009379 0
-0.001949 -0.008544 0
0.001789 -0.007593 0
0.005163 -0.006561 0
0.008134 -0.005480 0
0.010675 -0.004378 0
0.012771 -0.003277 0
0.014419 -0.002200 0
0.015622 -0.001161 0
0.016392 -0.000174 0
0.016748 0.000752 0
0.016714 0.001609 0
0.016316 0.002392 0
0.015586 0.003099 0
0.014557 0.003722 0
0.013266 0.004251 0
0.011755 0.004671 0
0.010069 0.004958 0
0.008267 0.005078 0
0.006415 0.004989 0
0.004595 0.004640 0
0.002907 0.003979 0
0.001473 0.002970 0
0.000439 0.001618 0
0.000000 0.000000 0
0.000000 0.000000 0
-0.000862 0.003694 0
-0.003174 0.007517 0
-0.006714 0.011027 0
-0.011256 0.013895 0
-0.016548 0.015898 0
-0.022310 0.016918 0
-0.028247 0.016930 0
-0.034072 0.015994 0
-0.039521 0.014237 0
-0.044367 0.011827 0
-0.048434 0.008951 0
-0.051596 0.005798 0
-0.053776 0.002537 0
-0.054944 -0.000683 0
-0.055109 -0.003747 0
-0.054312 -0.006559 0
-0.052616 -0.009051 0
-0.050108 -0.011172 0
-0.046888 -0.012891 0
-0.043068 -0.014191 0
-0.038766 -0.015073 0
-0.034107 -0.015546 0
-0.029212 -0.015632 0
-0.024201 -0.015361 0
-0.019188 -0.014770 0
-0.014279 -0.013902 0
-0.009565 -0.012803 0
-0.005130 -0.011520 0
-0.001041 -0.010099 0
0.002644 -0.008588 0
0.005886 -0.007030 0
0.008656 -0.005459 0
0.010941 -0.003908 0
0.012738 -0.002402 0
0.014053 -0.000961 0
0.014900 0.000399 0
0.015301 0.001664 0
0.015282 0.002825 0
0.014877 0.003876 0
0.014120 0.004806 0
0.013051 0.005602 0
0.011714 0.006242 0
0.010157 0.006695 0
0.008440 0.006919 0
0.006629 0.006856 0
0.004809 0.006440 0
0.003084 0.005598 0
0.001583 0.004265 0
0.000478 0.002398 0
0.000000 0.000000 0
0.000000 -0.000000 0
-0.000995 0.005413 0
-0.003651 0.010673 0
-0.007689 0.015367 0
-0.012841 0.019159 0
-0.018822 0.021805 0
-0.025331 0.023169 0
-0.032057 0.023226 0
-0.038698 0.022052 0
-0.044978 0.019804 0
-0.050658 0.016694 0
-0.055550 0.012960 0
-0.059513 0.008839 0
-0.062457 0.004551 0
-0.064339 0.000287 0
-0.065155 -0.003801 0
-0.064933 -0.007591 0
-0.063727 -0.010988 0
-0.061611 -0.013926 0
-0.058679 -0.016357 0
-0.055036 -0.018255 0
-0.050795 -0.019613 0
-0.046080 -0.020438 0
-0.041015 -0.020751 0
-0.035725 -0.020585 0
-0.030332 -0.019985 0
-0.024952 -0.019002 0
-0.019692 -0.017693 0
-0.014646 -0.016117 0
-0.009898 -0.014335 0
-0.005516 -0.012408 0
-0.001557 -0.010390 0
0.001936 -0.008332 0
0.004938 -0.006281 0
0.007434 -0.004273 0
0.009419 -0.002336 0
0.010902 -0.000496 0
0.011900 0.001227 0
0.012432 0.002817 0
0.012531 0.004261 0
0.012232 0.005547 0
0.011573 0.006657 0
0.010598 0.007565 0
0.009356 0.008232 0
0.007902 0.008607 0
0.006302 0.008619 0
0.004640 0.008185 0
0.003017 0.007205 0
0.001569 0.005576 0
0.000480 0.003202 0
0.000000 0.000000 0
0.000000 -0.000000 0
-0.001098 0.007345 0
-0.004030 0.014211 0
-0.008483 0.020218 0
-0.014156 0.025028 0
-0.020741 0.028388 0
-0.027920 0.030152 0
-0.035369 0.030296 0
-0.042778 0.028915 0
-0.049863 0.026197 0
-0.056378 0.022399 0
-0.062123 0.017806 0
-0.066948 0.012705 0
-0.070751 0.007364 0
-0.073473 0.002014 0
-0.075093 -0.003153 0
-0.075627 -0.007988 0
-0.075114 -0.012372 0
-0.073613 -0.016219 0
-0.071203 -0.019467 0
-0.067975 -0.022076 0
-0.064034 -0.024029 0
-0.059496 -0.025326 0
-0.054482 -0.025986 0
-0.049116 -0.026043 0
-0.043523 -0.025543 0
-0.037826 -0.024543 0
-0.032141 -0.023110 0
-0.026575 -0.021314 0
-0.021226 -0.019229 0
-0.016178 -0.016929 0
-0.011500 -0.014482 0
-0.007250 -0.011955 0
-0.003468 -0.009406 0
-0.000184 -0.006883 0
0.002587 -0.004430 0
0.004842 -0.002082 0
0.006587 0.000134 0
0.007836 0.002194 0
0.008612 0.004077 0
0.008947 0.005764 0
0.008879 0.007235 0
0.008447 0.008459 0
0.007696 0.009392 0
0.006678 0.009972 0
0.005455 0.010118 0
0.004102 0.009726 0
0.002720 0.008669 0
0.001440 0.006802 0
0.000448 0.003968 0
0.000000 -0.000000 0
0.000000 -0.000000 0
-0.001174 0.009443 0
-0.004324 0.018058 0
-0.009114 0.025494 0
-0.015225 0.031418 0
-0.022331 0.035568 0
-0.030102 0.037796 0
-0.038209 0.038085 0
-0.046337 0.036546 0
-0.054197 0.033404 0
-0.061539 0.028954 0
-0.068157 0.023530 0
-0.073892 0.017467 0
-0.078630 0.011076 0
-0.082297 0.004629 0
-0.084856 -0.001646 0
-0.086305 -0.007570 0
-0.086664 -0.013002 0
-0.085974 -0.017837 0
-0.084295 -0.021995 0
-0.081701 -0.025423 0
-0.078283 -0.028091 0
-0.074142 -0.029990 0
-0.069390 -0.031132 0
-0.064145 -0.031544 0
-0.058531 -0.031275 0
-0.052673 -0.030384 0
-0.046694 -0.028943 0
-0.040711 -0.027031 0
-0.034833 -0.024733 0
-0.029158 -0.022134 0
-0.023772 -0.019318 0
-0.018747 -0.016365 0
-0.014142 -0.013347 0
-0.009998 -0.010327 0
-0.006346 -0.007362 0
-0.003203 -0.004496 0
-0.000574 -0.001767 0
0.001545 0.000792 0
0.003165 0.003149 0
0.004308 0.005280 0
0.005005 0.007158 0
0.005290 0.008748 0
0.005204 0.010001 0
0.004791 0.010848 0
0.004105 0.011195 0
0.003213 0.010920 0
0.002204 0.009867 0
0.001204 0.007847 0
0.000386 0.004642 0
0.000000 -0.000000 0
0.000000 0.000000 0
-0.001230 0.011669 0
-0.004545 0.022151 0
-0.009602 0.031119 0
-0.016069 0.038244 0
-0.023613 0.043265 0
-0.031898 0.046030 0
-0.040594 0.046531 0
-0.049384 0.044903 0
-0.057980 0.041399 0
-0.066130 0.036359 0
-0.073624 0.030159 0
-0.080298 0.023178 0
-0.086026 0.015769 0
-0.090721 0.008241 0
-0.094329 0.000855 0
-0.096823 -0.006180 0
-0.098207 -0.012704 0
-0.098499 -0.018588 0
-0.097739 -0.023739 0
-0.095979 -0.028087 0
-0.093289 -0.031588 0
-0.089752 -0.034220 0
-0.085465 -0.035984 0
-0.080537 -0.036902 0
-0.075084 -0.037014 0
-0.069229 -0.036380 0
-0.063097 -0.035072 0
-0.056811 -0.033175 0
-0.050492 -0.030782 0
-0.044250 -0.027989 0
-0.038185 -0.024893 0
-0.032387 -0.021586 0
-0.026930 -0.018155 0
-0.021874 -0.014678 0
-0.017265 -0.011225 0
-0.013137 -0.007854 0
-0.009507 -0.004614 0
-0.006384 -0.001545 0
-0.003768 0.001313 0
-0.001654 0.003925 0
-0.000024 0.006253 0
0.001150 0.008260 0
0.001897 0.009891 0
0.002255 0.011071 0
0.002265 0.011696 0
0.001981 0.011626 0
0.001479 0.010678 0
0.000865 0.008620 0
0.000296 0.005171 0
0.000000 0.000000 0
0.000000 0.000000 0
-0.001268 0.013988 0
-0.004703 0.026430 0
-0.009961 0.037018 0
-0.016708 0.045428 0
-0.024609 0.051398 0
-0.033328 0.054778 0
-0.042538 0.055570 0
-0.051924 0.053932 0
-0.061204 0.050149 0
-0.070126 0.044598 0
-0.078481 0.037699 0
-0.086099 0.029869 0
-0.092847 0.021499 0
-0.098624 0.012932 0
-0.103358 0.004456 0
-0.107002 -0.003692 0
-0.109535 -0.011327 0
-0.110955 -0.018305 0
-0.111276 -0.024516 0
-0.110526 -0.029874 0
-0.108751 -0.034319 0
-0.106013 -0.037814 0
-0.102389 -0.040347 0
-0.097970 -0.041926 0
-0.092862 -0.042583 0
-0.087181 -0.042371 0
-0.081049 -0.041360 0
-0.074593 -0.039636 0
-0.067939 -0.037295 0
-0.061209 -0.034441 0
-0.054518 -0.031181 0
-0.047971 -0.027620 0
-0.041658 -0.023859 0
-0.035660 -0.019991 0
-0.030039 -0.016099 0
-0.024847 -0.012255 0
-0.020118 -0.008520 0
-0.015877 -0.004947 0
-0.012137 -0.001581 0
-0.008904 0.001536 0
-0.006180 0.004354 0
-0.003954 0.006827 0
-0.002208 0.008895 0
-0.000918 0.010480 0
-0.000057 0.011469 0
0.000414 0.011706 0
0.000547 0.010983 0
0.000426 0.009030 0
0.000178 0.005506 0
0.000000 0.000000 0
0.000000 0.000000 0
-0.001291 0.016372 0
-0.004806 0.030844 0
-0.010205 0.043123 0
-0.017159 0.052892 0
-0.025337 0.059885 0
-0.034408 0.063959 0
-0.044051 0.065128 0
-0.053960 0.063569 0
-0.063858 0.059601 0
-0.073499 0.053636 0
-0.082677 0.046132 0
-0.091219 0.037544 0
-0.098986 0.028294 0
-0.105869 0.018752 0
-0.111777 0.009233 0
-0.116644 -0.000003 0
-0.120422 -0.008750 0
-0.123084 -0.016848 0
-0.124620 -0.024168 0
-0.125033 -0.030611 0
-0.124341 -0.036101 0
-0.122581 -0.040583 0
-0.119805 -0.044028 0
-0.116084 -0.046428 0
-0.111508 -0.047803 0
-0.106178 -0.048193 0
-0.100211 -0.047659 0
-0.093732 -0.046285 0
-0.086870 -0.044166 0
-0.079755 -0.041410 0
-0.072513 -0.038132 0
-0.065264 -0.034446 0
-0.058118 -0.030466 0
-0.051171 -0.026297 0
-0.044507 -0.022038 0
-0.038195 -0.017775 0
-0.032291 -0.013583 0
-0.026837 -0.009526 0
-0.021862 -0.005660 0
-0.017387 -0.002033 0
-0.013428 0.001303 0
-0.009995 0.004288 0
-0.007093 0.006855 0
-0.004715 0.008919 0
-0.002850 0.010364 0
-0.001484 0.011023 0
-0.000588 0.010666 0
-0.000113 0.008989 0
0.000032 0.005597 0
0.000000 0.000000 0
0.000000 -0.000000 0
-0.001301 0.018793 0
-0.004859 0.035344 0
-0.010346 0.049372 0
-0.017440 0.060560 0
-0.025817 0.068647 0
-0.035157 0.073492 0
-0.045149 0.075122 0
-0.055498 0.073738 0
-0.065935 0.069688 0
-0.076225 0.063417 0
-0.086166 0.055418 0
-0.095586 0.046179 0
-0.104345 0.036149 0
-0.112322 0.025723 0
-0.119417 0.015232 0
-0.125543 0.004953 0
-0.130626 -0.004887 0
-0.134614 -0.014107 0
-0.137470 -0.022567 0
-0.139171 -0.030152 0
-0.139707 -0.036770 0
-0.139085 -0.042350 0
-0.137331 -0.046843 0
-0.134490 -0.050223 0
-0.130629 -0.052490 0
-0.125833 -0.053668 0
-0.120206 -0.053806 0
-0.113865 -0.052977 0
-0.106939 -0.051272 0
-0.099561 -0.048797 0
-0.091869 -0.045671 0
-0.083993 -0.042015 0
-0.076060 -0.037953 0
-0.068185 -0.033602 0
-0.060473 -0.029075 0
-0.053012 -0.024470 0
-0.045879 -0.019879 0
-0.039137 -0.015376 0
-0.032836 -0.011030 0
-0.027016 -0.006899 0
-0.021706 -0.003038 0
-0.016936 0.000492 0
-0.012732 0.003615 0
-0.009117 0.006237 0
-0.006104 0.008238 0
-0.003705 0.009444 0
-0.001925 0.009613 0
-0.000751 0.008410 0
-0.000142 0.005393 0
0.000000 -0.000000 0
0.000000 -0.000000 0
-0.001300 0.021231 0
-0.004870 0.039889 0
-0.010396 0.055704 0
-0.017565 0.068362 0
-0.026067 0.077603 0
-0.035594 0.083291 0
-0.045847 0.085468 0
-0.056547 0.084355 0
-0.067436 0.080329 0
-0.078290 0.073867 0
-0.088914 0.065493 0
-0.099142 0.055723 0
-0.108832 0.045030 0
-0.117861 0.033825 0
-0.126118 0.022454 0
-0.133501 0.011206 0
-0.139916 0.000321 0
-0.145280 -0.010003 0
-0.149528 -0.019611 0
-0.152611 -0.028374 0
-0.154491 -0.036186 0
-0.155145 -0.042959 0
-0.154568 -0.048622 0
-0.152776 -0.053130 0
-0.149809 -0.056460 0
-0.145730 -0.058616 0
-0.140623 -0.059627 0
-0.134593 -0.059552 0
-0.127764 -0.058469 0
-0.120268 -0.056480 0
-0.112246 -0.053700 0
-0.103842 -0.050254 0
-0.095196 -0.046273 0
-0.086441 -0.041885 0
-0.077701 -0.037212 0
-0.069087 -0.032369 0
-0.060699 -0.027458 0
-0.052619 -0.022569 0
-0.044923 -0.017781 0
-0.037670 -0.013163 0
-0.030914 -0.008776 0
-0.024702 -0.004686 0
-0.019078 -0.000965 0
-0.014095 0.002292 0
-0.009799 0.004953 0
-0.006239 0.006843 0
-0.003456 0.007712 0
-0.001487 0.007207 0
-0.000345 0.004846 0
0.000000 -0.000000 0
0.000000 0.000000 0
-0.001289 0.023664 0
-0.004845 0.044440 0
-0.010365 0.062066 0
-0.017552 0.076232 0
-0.026108 0.086676 0
-0.035742 0.093272 0
-0.046169 0.096075 0
-0.057125 0.095327 0
-0.068369 0.091431 0
-0.079688 0.084895 0
-0.090899 0.076270 0
-0.101842 0.066098 0
-0.112380 0.054869 0
-0.122386 0.043009 0
-0.131746 0.030871 0
-0.140347 0.018751 0
-0.148078 0.006892 0
-0.154829 -0.004496 0
-0.160506 -0.015236 0
-0.165032 -0.025189 0
-0.168341 -0.034236 0
-0.170380 -0.042273 0
-0.171112 -0.049211 0
-0.170523 -0.054982 0
-0.168618 -0.059536 0
-0.165433 -0.062854 0
-0.161029 -0.064943 0
-0.155492 -0.065836 0
-0.148933 -0.065597 0
-0.141478 -0.064315 0
-0.133271 -0.062096 0
-0.124460 -0.059065 0
-0.115199 -0.055354 0
-0.105638 -0.051097 0
-0.095918 -0.046428 0
-0.086175 -0.041473 0
-0.076529 -0.036347 0
-0.067089 -0.031152 0
-0.057952 -0.025980 0
-0.049205 -0.020907 0
-0.040924 -0.016006 0
-0.033181 -0.011343 0
-0.026047 -0.006992 0
-0.019593 -0.003042 0
-0.013903 0.000382 0
-0.009065 0.003101 0
-0.005172 0.004861 0
-0.002316 0.005299 0
-0.000575 0.003906 0
0.000000 -0.000000 0
0.000000 0.000000 0
-0.001271 0.026075 0
-0.004787 0.048964 0
-0.010264 0.068411 0
-0.017416 0.084106 0
-0.025962 0.095793 0
-0.035625 0.103352 0
-0.046139 0.106851 0
-0.057257 0.106555 0
-0.068754 0.102892 0
-0.080431 0.096397 0
-0.092118 0.087647 0
-0.103665 0.077204 0
-0.114941 0.065574 0
-0.125823 0.053192 0
-0.136193 0.040414 0
-0.145933 0.027537 0
-0.154921 0.014803 0
-0.163031 0.002425 0
-0.170139 -0.009409 0
-0.176133 -0.020540 0
-0.180921 -0.030838 0
-0.184423 -0.040187 0
-0.186569 -0.048480 0
-0.187310 -0.055625 0
-0.186619 -0.061550 0
-0.184497 -0.066205 0
-0.180975 -0.069568 0
-0.176115 -0.071648 0
-0.170008 -0.072483 0
-0.162770 -0.072142 0
-0.154538 -0.070718 0
-0.145464 -0.068326 0
-0.135710 -0.065096 0
-0.125440 -0.061166 0
-0.114816 -0.056675 0
-0.103993 -0.051758 0
-0.093115 -0.046544 0
-0.082318 -0.041146 0
-0.071725 -0.035666 0
-0.061446 -0.030191 0
-0.051587 -0.024800 0
-0.042246 -0.019563 0
-0.033523 -0.014552 0
-0.025522 -0.009851 0
-0.018355 -0.005575 0
-0.012150 -0.001888 0
-0.007056 0.000962 0
-0.003230 0.002610 0
-0.000831 0.002530 0
0.000000 -0.000000 0
0.000000 -0.000000 0
-0.001245 0.028451 0
-0.004703 0.053433 0
-0.010103 0.074695 0
-0.017174 0.091930 0
-0.025651 0.104885 0
-0.035272 0.113449 0
-0.045789 0.117707 0
-0.056974 0.117941 0
-0.068618 0.114605 0
-0.080541 0.108259 0
-0.092584 0.099504 0
-0.104610 0.088921 0
-0.116496 0.077027 0
-0.128126 0.064261 0
-0.139386 0.050982 0
-0.150154 0.037478 0
-0.160304 0.023990 0
-0.169698 0.010723 0
-0.178193 -0.002135 0
-0.185643 -0.014408 0
-0.191923 -0.025946 0
-0.196928 -0.036625 0
-0.200559 -0.046324 0
-0.202732 -0.054932 0
-0.203382 -0.062349 0
-0.202475 -0.068498 0
-0.200006 -0.073324 0
-0.196006 -0.076803 0
-0.190538 -0.078943 0
-0.183701 -0.079785 0
-0.175621 -0.079402 0
-0.166447 -0.077893 0
-0.156344 -0.075378 0
-0.145488 -0.071991 0
-0.134058 -0.067876 0
-0.122231 -0.063174 0
-0.110175 -0.058021 0
-0.098051 -0.052543 0
-0.086010 -0.046852 0
-0.074192 -0.041045 0
-0.062729 -0.035206 0
-0.051751 -0.029406 0
-0.041388 -0.023716 0
-0.031777 -0.018211 0
-0.023068 -0.012989 0
-0.015435 -0.008197 0
-0.009075 -0.004060 0
-0.004217 -0.000927 0
-0.001109 0.000677 0
0.000000 -0.000000 0
0.000000 -0.000000 0
-0.001215 0.030779 0
-0.004599 0.057822 0
-0.009893 0.080882 0
-0.016844 0.099654 0
-0.025197 0.113890 0
-0.034710 0.123490 0
-0.045153 0.128553 0
-0.056312 0.129385 0
-0.068001 0.126460 0
-0.080053 0.120363 0
-0.092326 0.111716 0
-0.104696 0.101115 0
-0.117050 0.089090 0
-0.129283 0.076081 0
-0.141285 0.062442 0
-0.152940 0.048455 0
-0.164119 0.034347 0
-0.174682 0.020315 0
-0.184471 0.006536 0
-0.193323 -0.006810 0
-0.201072 -0.019553 0
-0.207583 -0.031551 0
-0.212732 -0.042676 0
-0.216402 -0.052802 0
-0.218493 -0.061806 0
-0.218930 -0.069581 0
-0.217669 -0.076038 0
-0.214703 -0.081116 0
-0.210062 -0.084788 0
-0.203819 -0.087059 0
-0.196080 -0.087972 0
-0.186985 -0.087603 0
-0.176699 -0.086054 0
-0.165403 -0.083451 0
-0.153292 -0.079932 0
-0.140562 -0.075642 0
-0.127406 -0.070723 0
-0.114013 -0.065311 0
-0.100561 -0.059525 0
-0.087222 -0.053472 0
-0.074159 -0.047241 0
-0.061532 -0.040904 0
-0.049506 -0.034526 0
-0.038252 -0.028171 0
-0.027962 -0.021917 0
-0.018855 -0.015881 0
-0.011186 -0.010256 0
-0.005256 -0.005357 0
-0.001404 -0.001687 0
0.000000 -0.000000 0
0.000000 0.000000 0
-0.001181 0.033050 0
-0.004478 0.062111 0
-0.009645 0.086940 0
-0.016441 0.107234 0
-0.024626 0.122752 0
-0.033972 0.133405 0
-0.044266 0.139308 0
-0.055313 0.140789 0
-0.066944 0.138346 0
-0.079010 0.132585 0
-0.091385 0.124147 0
-0.103958 0.113645 0
-0.116630 0.101614 0
-0.129305 0.088496 0
-0.141884 0.074639 0
-0.154260 0.060313 0
-0.166307 0.045732 0
-0.177885 0.031075 0
-0.188834 0.016506 0
-0.198980 0.002193 0
-0.208134 -0.011686 0
-0.216114 -0.024965 0