# vtk DataFile Version 2.0
generated by CFD-lab course output (written by Tobias Neckel) 
ASCII

DATASET STRUCTURED_GRID
DIMENSIONS  51 51 1 
POINTS 2601 float

0.000000 0.000000 0
0.020000 0.000000 0
0.040000 0.000000 0
0.060000 0.000000 0
0.080000 0.000000 0
0.100000 0.000000 0
0.120000 0.000000 0
0.140000 0.000000 0
0.160000 0.000000 0
0.180000 0.000000 0
0.200000 0.000000 0
0.220000 0.000000 0
0.240000 0.000000 0
0.260000 0.000000 0
0.280000 0.000000 0
0.300000 0.000000 0
0.320000 0.000000 0
0.340000 0.000000 0
0.360000 0.000000 0
0.380000 0.000000 0
0.400000 0.000000 0
0.420000 0.000000 0
0.440000 0.000000 0
0.460000 0.000000 0
0.480000 0.000000 0
0.500000 0.000000 0
0.520000 0.000000 0
0.540000 0.000000 0
0.560000 0.000000 0
0.580000 0.000000 0
0.600000 0.000000 0
0.620000 0.000000 0
0.640000 0.000000 0
0.660000 0.000000 0
0.680000 0.000000 0
0.700000 0.000000 0
0.720000 0.000000 0
0.740000 0.000000 0
0.760000 0.000000 0
0.780000 0.000000 0
0.800000 0.000000 0
0.820000 0.000000 0
0.840000 0.000000 0
0.860000 0.000000 0
0.880000 0.000000 0
0.900000 0.000000 0
0.920000 0.000000 0
0.940000 0.000000 0
0.960000 0.000000 0
0.980000 0.000000 0
1.000000 0.000000 0
0.000000 0.020000 0
0.020000 0.020000 0
0.040000 0.020000 0
0.060000 0.020000 0
0.080000 0.020000 0
0.100000 0.020000 0
0.120000 0.020000 0
0.140000 0.020000 0
0.160000 0.020000 0
0.180000 0.020000 0
0.200000 0.020000 0
0.220000 0.020000 0
0.240000 0.020000 0
0.260000 0.020000 0
0.280000 0.020000 0
0.300000 0.020000 0
0.320000 0.020000 0
0.340000 0.020000 0
0.360000 0.020000 0
0.380000 0.020000 0
0.400000 0.020000 0
0.420000 0.020000 0
0.440000 0.020000 0
0.460000 0.020000 0
0.480000 0.020000 0
0.500000 0.020000 0
0.520000 0.020000 0
0.540000 0.020000 0
0.560000 0.020000 0
0.580000 0.020000 0
0.600000 0.020000 0
0.620000 0.020000 0
0.640000 0.020000 0
0.660000 0.020000 0
0.680000 0.020000 0
0.700000 0.020000 0
0.720000 0.020000 0
0.740000 0.020000 0
0.760000 0.020000 0
0.780000 0.020000 0
0.800000 0.020000 0
0.820000 0.020000 0
0.840000 0.020000 0
0.860000 0.020000 0
0.880000 0.020000 0
0.900000 0.020000 0
0.920000 0.020000 0
0.940000 0.020000 0
0.960000 0.020000 0
0.980000 0.020000 0
1.000000 0.020000 0
0.000000 0.040000 0
0.020000 0.040000 0
0.040000 0.040000 0
0.060000 0.040000 0
0.080000 0.040000 0
0.100000 0.040000 0
0.120000 0.040000 0
0.140000 0.040000 0
0.160000 0.040000 0
0.180000 0.040000 0
0.200000 0.040000 0
0.220000 0.040000 0
0.240000 0.040000 0
0.260000 0.040000 0
0.280000 0.040000 0
0.300000 0.040000 0
0.320000 0.040000 0
0.340000 0.040000 0
0.360000 0.040000 0
0.380000 0.040000 0
0.400000 0.040000 0
0.420000 0.040000 0
0.440000 0.040000 0
0.460000 0.040000 0
0.480000 0.040000 0
0.500000 0.040000 0
0.520000 0.040000 0
0.540000 0.040000 0
0.560000 0.040000 0
0.580000 0.040000 0
0.600000 0.040000 0
0.620000 0.040000 0
0.640000 0.040000 0
0.660000 0.040000 0
0.680000 0.040000 0
0.700000 0.040000 0
0.720000 0.040000 0
0.740000 0.040000 0
0.760000 0.040000 0
0.780000 0.040000 0
0.800000 0.040000 0
0.820000 0.040000 0
0.840000 0.040000 0
0.860000 0.040000 0
0.880000 0.040000 0
0.900000 0.040000 0
0.920000 0.040000 0
0.940000 0.040000 0
0.960000 0.040000 0
0.980000 0.040000 0
1.000000 0.040000 0
0.000000 0.060000 0
0.020000 0.060000 0
0.040000 0.060000 0
0.060000 0.060000 0
0.080000 0.060000 0
0.100000 0.060000 0
0.120000 0.060000 0
0.140000 0.060000 0
0.160000 0.060000 0
0.180000 0.060000 0
0.200000 0.060000 0
0.220000 0.060000 0
0.240000 0.060000 0
0.260000 0.060000 0
0.280000 0.060000 0
0.300000 0.060000 0
0.320000 0.060000 0
0.340000 0.060000 0
0.360000 0.060000 0
0.380000 0.060000 0
0.400000 0.060000 0
0.420000 0.060000 0
0.440000 0.060000 0
0.460000 0.060000 0
0.480000 0.060000 0
0.500000 0.060000 0
0.520000 0.060000 0
0.540000 0.060000 0
0.560000 0.060000 0
0.580000 0.060000 0
0.600000 0.060000 0
0.620000 0.060000 0
0.640000 0.060000 0
0.660000 0.060000 0
0.680000 0.060000 0
0.700000 0.060000 0
0.720000 0.060000 0
0.740000 0.060000 0
0.760000 0.060000 0
0.780000 0.060000 0
0.800000 0.060000 0
0.820000 0.060000 0
0.840000 0.060000 0
0.860000 0.060000 0
0.880000 0.060000 0
0.900000 0.060000 0
0.920000 0.060000 0
0.940000 0.060000 0
0.960000 0.060000 0
0.980000 0.060000 0
1.000000 0.060000 0
0.000000 0.080000 0
0.020000 0.080000 0
0.040000 0.080000 0
0.060000 0.080000 0
0.080000 0.080000 0
0.100000 0.080000 0
0.120000 0.080000 0
0.140000 0.080000 0
0.160000 0.080000 0
0.180000 0.080000 0
0.200000 0.080000 0
0.220000 0.080000 0
0.240000 0.080000 0
0.260000 0.080000 0
0.280000 0.080000 0
0.300000 0.080000 0
0.320000 0.080000 0
0.340000 0.080000 0
0.360000 0.080000 0
0.380000 0.080000 0
0.400000 0.080000 0
0.420000 0.080000 0
0.440000 0.080000 0
0.460000 0.080000 0
0.480000 0.080000 0
0.500000 0.080000 0
0.520000 0.080000 0
0.540000 0.080000 0
0.560000 0.080000 0
0.580000 0.080000 0
0.600000 0.080000 0
0.620000 0.080000 0
0.640000 0.080000 0
0.660000 0.080000 0
0.680000 0.080000 0
0.700000 0.080000 0
0.720000 0.080000 0
0.740000 0.080000 0
0.760000 0.080000 0
0.780000 0.080000 0
0.800000 0.080000 0
0.820000 0.080000 0
0.840000 0.080000 0
0.860000 0.080000 0
0.880000 0.080000 0
0.900000 0.080000 0
0.920000 0.080000 0
0.940000 0.080000 0
0.960000 0.080000 0
0.980000 0.080000 0
1.000000 0.080000 0
0.000000 0.100000 0
0.020000 0.100000 0
0.040000 0.100000 0
0.060000 0.100000 0
0.080000 0.100000 0
0.100000 0.100000 0
0.120000 0.100000 0
0.140000 0.100000 0
0.160000 0.100000 0
0.180000 0.100000 0
0.200000 0.100000 0
0.220000 0.100000 0
0.240000 0.100000 0
0.260000 0.100000 0
0.280000 0.100000 0
0.300000 0.100000 0
0.320000 0.100000 0
0.340000 0.100000 0
0.360000 0.100000 0
0.380000 0.100000 0
0.400000 0.100000 0
0.420000 0.100000 0
0.440000 0.100000 0
0.460000 0.100000 0
0.480000 0.100000 0
0.500000 0.100000 0
0.520000 0.100000 0
0.540000 0.100000 0
0.560000 0.100000 0
0.580000 0.100000 0
0.600000 0.100000 0
0.620000 0.100000 0
0.640000 0.100000 0
0.660000 0.100000 0
0.680000 0.100000 0
0.700000 0.100000 0
0.720000 0.100000 0
0.740000 0.100000 0
0.760000 0.100000 0
0.780000 0.100000 0
0.800000 0.100000 0
0.820000 0.100000 0
0.840000 0.100000 0
0.860000 0.100000 0
0.880000 0.100000 0
0.900000 0.100000 0
0.920000 0.100000 0
0.940000 0.100000 0
0.960000 0.100000 0
0.980000 0.100000 0
1.000000 0.100000 0
0.000000 0.120000 0
0.020000 0.120000 0
0.040000 0.120000 0
0.060000 0.120000 0
0.080000 0.120000 0
0.100000 0.120000 0
0.120000 0.120000 0
0.140000 0.120000 0
0.160000 0.120000 0
0.180000 0.120000 0
0.200000 0.120000 0
0.220000 0.120000 0
0.240000 0.120000 0
0.260000 0.120000 0
0.280000 0.120000 0
0.300000 0.120000 0
0.320000 0.120000 0
0.340000 0.120000 0
0.360000 0.120000 0
0.380000 0.120000 0
0.400000 0.120000 0
0.420000 0.120000 0
0.440000 0.120000 0
0.460000 0.120000 0
0.480000 0.120000 0
0.500000 0.120000 0
0.520000 0.120000 0
0.540000 0.120000 0
0.560000 0.120000 0
0.580000 0.120000 0
0.600000 0.120000 0
0.620000 0.120000 0
0.640000 0.120000 0
0.660000 0.120000 0
0.680000 0.120000 0
0.700000 0.120000 0
0.720000 0.120000 0
0.740000 0.120000 0
0.760000 0.120000 0
0.780000 0.120000 0
0.800000 0.120000 0
0.820000 0.120000 0
0.840000 0.120000 0
0.860000 0.120000 0
0.880000 0.120000 0
0.900000 0.120000 0
0.920000 0.120000 0
0.940000 0.120000 0
0.960000 0.120000 0
0.980000 0.120000 0
1.000000 0.120000 0
0.000000 0.140000 0
0.020000 0.140000 0
0.040000 0.140000 0
0.060000 0.140000 0
0.080000 0.140000 0
0.100000 0.140000 0
0.120000 0.140000 0
0.140000 0.140000 0
0.160000 0.140000 0
0.180000 0.140000 0
0.200000 0.140000 0
0.220000 0.140000 0
0.240000 0.140000 0
0.260000 0.140000 0
0.280000 0.140000 0
0.300000 0.140000 0
0.320000 0.140000 0
0.340000 0.140000 0
0.360000 0.140000 0
0.380000 0.140000 0
0.400000 0.140000 0
0.420000 0.140000 0
0.440000 0.140000 0
0.460000 0.140000 0
0.480000 0.140000 0
0.500000 0.140000 0
0.520000 0.140000 0
0.540000 0.140000 0
0.560000 0.140000 0
0.580000 0.140000 0
0.600000 0.140000 0
0.620000 0.140000 0
0.640000 0.140000 0
0.660000 0.140000 0
0.680000 0.140000 0
0.700000 0.140000 0
0.720000 0.140000 0
0.740000 0.140000 0
0.760000 0.140000 0
0.780000 0.140000 0
0.800000 0.140000 0
0.820000 0.140000 0
0.840000 0.140000 0
0.860000 0.140000 0
0.880000 0.140000 0
0.900000 0.140000 0
0.920000 0.140000 0
0.940000 0.140000 0
0.960000 0.140000 0
0.980000 0.140000 0
1.000000 0.140000 0
0.000000 0.160000 0
0.020000 0.160000 0
0.040000 0.160000 0
0.060000 0.160000 0
0.080000 0.160000 0
0.100000 0.160000 0
0.120000 0.160000 0
0.140000 0.160000 0
0.160000 0.160000 0
0.180000 0.160000 0
0.200000 0.160000 0
0.220000 0.160000 0
0.240000 0.160000 0
0.260000 0.160000 0
0.280000 0.160000 0
0.300000 0.160000 0
0.320000 0.160000 0
0.340000 0.160000 0
0.360000 0.160000 0
0.380000 0.160000 0
0.400000 0.160000 0
0.420000 0.160000 0
0.440000 0.160000 0
0.460000 0.160000 0
0.480000 0.160000 0
0.500000 0.160000 0
0.520000 0.160000 0
0.540000 0.160000 0
0.560000 0.160000 0
0.580000 0.160000 0
0.600000 0.160000 0
0.620000 0.160000 0
0.640000 0.160000 0
0.660000 0.160000 0
0.680000 0.160000 0
0.700000 0.160000 0
0.720000 0.160000 0
0.740000 0.160000 0
0.760000 0.160000 0
0.780000 0.160000 0
0.800000 0.160000 0
0.820000 0.160000 0
0.840000 0.160000 0
0.860000 0.160000 0
0.880000 0.160000 0
0.900000 0.160000 0
0.920000 0.160000 0
0.940000 0.160000 0
0.960000 0.160000 0
0.980000 0.160000 0
1.000000 0.160000 0
0.000000 0.180000 0
0.020000 0.180000 0
0.040000 0.180000 0
0.060000 0.180000 0
0.080000 0.180000 0
0.100000 0.180000 0
0.120000 0.180000 0
0.140000 0.180000 0
0.160000 0.180000 0
0.180000 0.180000 0
0.200000 0.180000 0
0.220000 0.180000 0
0.240000 0.180000 0
0.260000 0.180000 0
0.280000 0.180000 0
0.300000 0.180000 0
0.320000 0.180000 0
0.340000 0.180000 0
0.360000 0.180000 0
0.380000 0.180000 0
0.400000 0.180000 0
0.420000 0.180000 0
0.440000 0.180000 0
0.460000 0.180000 0
0.480000 0.180000 0
0.500000 0.180000 0
0.520000 0.180000 0
0.540000 0.180000 0
0.560000 0.180000 0
0.580000 0.180000 0
0.600000 0.180000 0
0.620000 0.180000 0
[...]
POINT_DATA 2601 

VECTORS velocity float
0.000000 0.000000 0
-0.000000 0.000000 0
-0.000000 0.000000 0
-0.000000 0.000000 0
-0.000000 0.000000 0
0.000000 0.000000 0
-0.000000 0.000000 0
-0.000000 0.000000 0
-0.000000 0.000000 0
-0.000001 0.000000 0
-0.000001 0.000000 0
-0.000000 0.000000 0
-0.000000 0.000000 0
-0.000000 0.000000 0
-0.000000 0.000000 0
-0.000000 0.000000 0
-0.000000 0.000000 0
-0.000000 0.000000 0
-0.000000 0.000000 0
-0.000000 0.000000 0
-0.000000 0.000000 0
-0.000000 0.000000 0
-0.000000 0.000000 0
-0.000000 0.000000 0
-0.000000 0.000000 0
0.000000 0.000000 0
0.000000 0.000000 0
0.000000 0.000000 0
0.000000 0.000000 0
0.000000 0.000000 0
0.000000 0.000000 0
0.000000 0.000000 0
0.000000 0.000000 0
0.000000 0.000000 0
0.000000 0.000000 0
0.000000 0.000000 0
0.000000 0.000000 0
0.000000 0.000000 0
0.000000 0.000000 0
0.000000 0.000000 0
0.000000 0.000000 0
0.000000 0.000000 0
0.000000 0.000000 0
0.000000 0.000000 0
0.000000 0.000000 0
0.000000 0.000000 0
0.000000 0.000000 0
0.000000 0.000000 0
0.000000 0.000000 0
0.000000 0.000000 0
0.000000 0.000000 0
0.000000 -0.000000 0
-0.000006 0.000010 0
-0.000342 0.000237 0
-0.001085 0.000490 0
-0.002201 0.000700 0
-0.003603 0.000843 0
-0.005178 0.000912 0
-0.006808 0.000909 0
-0.008379 0.000841 0
-0.009792 0.000720 0
-0.010967 0.000559 0
-0.011846 0.000372 0
-0.012394 0.000174 0
-0.012596 -0.000026 0
-0.012458 -0.000216 0
-0.011997 -0.000391 0
-0.011242 -0.000543 0
-0.010233 -0.000670 0
-0.009011 -0.000770 0
-0.007624 -0.000843 0
-0.006119 -0.000887 0
-0.004542 -0.000906 0
-0.002938 -0.000901 0
-0.001348 -0.000874 0
0.000191 -0.000828 0
0.001648 -0.000766 0
0.002993 -0.000692 0
0.004208 -0.000609 0
0.005275 -0.000520 0
0.006184 -0.000427 0
0.006930 -0.000332 0
0.007509 -0.000239 0
0.007924 -0.000148 0
0.008180 -0.000061 0
0.008283 0.000021 0
0.008241 0.000097 0
0.008064 0.000167 0
0.007764 0.000232 0
0.007349 0.000291 0
0.006831 0.000344 0
0.006222 0.000390 0
0.005533 0.000430 0
0.004780 0.000461 0
0.003981 0.000481 0
0.003157 0.000486 0
0.002340 0.000469 0
0.001568 0.000425 0
0.000894 0.000342 0
0.000375 0.000218 0
0.000070 0.000070 0
0.000000 0.000000 0
0.000000 -0.000000 0
-0.000220 0.000342 0
-0.001051 0.001079 0
-0.002533 0.001860 0
-0.004604 0.002518 0
-0.007128 0.002976 0
-0.009933 0.003204 0
-0.012831 0.003200 0
-0.015637 0.002984 0
-0.018187 0.002588 0
-0.020344 0.002053 0
-0.022008 0.001426 0
-0.023113 0.000750 0
-0.023628 0.000064 0
-0.023553 -0.000600 0
-0.022913 -0.001216 0
-0.021751 -0.001765 0
-0.020125 -0.002232 0
-0.018106 -0.002609 0
-0.015770 -0.002892 0
-0.013196 -0.003082 0
-0.010464 -0.003181 0
-0.007652 -0.003195 0
-0.004832 -0.003130 0
-0.002070 -0.002996 0
0.000574 -0.002802 0
0.003048 -0.002560 0
0.005309 -0.002282 0
0.007327 -0.001977 0
0.009077 -0.001655 0
0.010545 -0.001325 0
0.011724 -0.000995 0
0.012614 -0.000671 0
0.013218 -0.000358 0
0.013548 -0.000061 0
0.013615 0.000218 0
0.013436 0.000477 0
0.013029 0.000716 0
0.012412 0.000932 0
0.011605 0.001127 0
0.010630 0.001298 0
0.009510 0.001441 0
0.008270 0.001553 0
0.006945 0.001624 0
0.005573 0.001641 0
0.004206 0.001589 0
0.002906 0.001446 0
0.001751 0.001193 0
0.000827 0.000824 0
0.000220 0.000375 0
0.000000 0.000000 0
0.000000 -0.000000 0
-0.000456 0.001061 0
-0.001802 0.002550 0
-0.003989 0.004042 0
-0.006908 0.005294 0
-0.010388 0.006171 0
-0.014217 0.006614 0
-0.018166 0.006613 0
-0.022005 0.006197 0
-0.025528 0.005427 0
-0.028560 0.004380 0
-0.030967 0.003140 0
-0.032662 0.001793 0
-0.033596 0.000415 0
-0.033760 -0.000931 0
-0.033177 -0.002194 0
-0.031894 -0.003331 0
-0.029981 -0.004315 0
-0.027518 -0.005125 0
-0.024600 -0.005753 0
-0.021326 -0.006193 0
-0.017798 -0.006451 0
-0.014114 -0.006534 0
-0.010373 -0.006456 0
-0.006663 -0.006233 0
-0.003066 -0.005884 0
0.000346 -0.005428 0
0.003512 -0.004888 0
0.006381 -0.004287 0
0.008917 -0.003645 0
0.011093 -0.002980 0
0.012894 -0.002307 0
0.014315 -0.001642 0
0.015358 -0.000995 0
0.016031 -0.000376 0
0.016348 0.000208 0
0.016329 0.000753 0
0.015996 0.001256 0
0.015373 0.001714 0
0.014487 0.002126 0
0.013366 0.002486 0
0.012042 0.002790 0
0.010552 0.003026 0
0.008936 0.003178 0
0.007246 0.003225 0
0.005545 0.003137 0
0.003907 0.002879 0
0.002423 0.002422 0
0.001198 0.001749 0
0.000346 0.000896 0
0.000000 0.000000 0
0.000000 -0.000000 0
-0.000661 0.002143 0
-0.002475 0.004611 0
-0.005304 0.006965 0
-0.008982 0.008916 0
-0.013303 0.010285 0
-0.018026 0.010982 0
-0.022891 0.010988 0
-0.027644 0.010346 0
-0.032047 0.009142 0
-0.035902 0.007493 0
-0.039052 0.005528 0
-0.041387 0.003378 0
-0.042845 0.001162 0
-0.043407 -0.001019 0
-0.043089 -0.003082 0
-0.041935 -0.004961 0
-0.040013 -0.006608 0
-0.037411 -0.007989 0
-0.034228 -0.009084 0
-0.030572 -0.009885 0
-0.026557 -0.010393 0
-0.022298 -0.010619 0
-0.017907 -0.010581 0
-0.013490 -0.010303 0
-0.009147 -0.009812 0
-0.004966 -0.009139 0
-0.001025 -0.008317 0
0.002610 -0.007381 0
0.005885 -0.006366 0
0.008760 -0.005303 0
0.011210 -0.004218 0
0.013221 -0.003135 0
0.014788 -0.002074 0
0.015918 -0.001052 0
0.016621 -0.000080 0
0.016915 0.000830 0
0.016826 0.001672 0
0.016380 0.002442 0
0.015609 0.003134 0
0.014545 0.003742 0
0.013227 0.004256 0
0.011695 0.004659 0
0.009997 0.004929 0
0.008190 0.005033 0
0.006341 0.004928 0
0.004532 0.004567 0
0.002860 0.003902 0
0.001445 0.002901 0
0.000429 0.001573 0
0.000000 0.000000 0
0.000000 0.000000 0
-0.000826 0.003536 0
-0.003041 0.007192 0
-0.006432 0.010548 0
-0.010783 0.013292 0
-0.015853 0.015215 0
-0.021375 0.016203 0
-0.027070 0.016231 0
-0.032662 0.015354 0
-0.037897 0.013685 0
-0.042558 0.011383 0
-0.046470 0.008625 0
-0.049509 0.005587 0
-0.051598 0.002435 0
-0.052706 -0.000688 0
-0.052838 -0.003666 0
-0.052032 -0.006407 0
-0.050350 -0.008839 0
-0.047875 -0.010911 0
-0.044705 -0.012592 0
-0.040949 -0.013864 0
-0.036725 -0.014725 0
-0.032153 -0.015185 0
-0.027356 -0.015264 0
-0.022450 -0.014993 0
-0.017548 -0.014408 0
-0.012753 -0.013550 0
-0.008158 -0.012464 0
-0.003841 -0.011197 0
0.000128 -0.009795 0
0.003696 -0.008305 0
0.006822 -0.006769 0
0.009480 -0.005221 0
0.011657 -0.003692 0
0.013351 -0.002208 0
0.014570 -0.000789 0
0.015327 0.000548 0
0.015644 0.001792 0
0.015549 0.002932 0
0.015075 0.003960 0
0.014258 0.004868 0
0.013138 0.005640 0
0.011757 0.006255 0
0.010167 0.006683 0
0.008425 0.006881 0
0.006600 0.006795 0
0.004776 0.006360 0
0.003054 0.005508 0
0.001563 0.004180 0
0.000470 0.002341 0
0.000000 0.000000 0
0.000000 0.000000 0
-0.000955 0.005184 0
-0.003502 0.010217 0
-0.007374 0.014707 0
-0.012314 0.018337 0
-0.018050 0.020878 0
-0.024294 0.022199 0
-0.030751 0.022275 0
-0.037131 0.021173 0
-0.043169 0.019037 0
-0.048634 0.016064 0
-0.053340 0.012479 0
-0.057150 0.008506 0
-0.059973 0.004359 0
-0.061764 0.000221 0
-0.062516 -0.003755 0
-0.062256 -0.007449 0
-0.061035 -0.010765 0
-0.058926 -0.013635 0
-0.056019 -0.016011 0
-0.052417 -0.017865 0
-0.048235 -0.019189 0
-0.043592 -0.019989 0
-0.038613 -0.020285 0
-0.033421 -0.020111 0
-0.028137 -0.019509 0
-0.022874 -0.018530 0
-0.017738 -0.017229 0
-0.012822 -0.015667 0
-0.008208 -0.013904 0
-0.003962 -0.011997 0
-0.000142 -0.010001 0
0.003215 -0.007969 0
0.006081 -0.005945 0
0.008443 -0.003964 0
0.010300 -0.002056 0
0.011661 -0.000244 0
0.012542 0.001450 0
0.012966 0.003010 0
0.012964 0.004425 0
0.012573 0.005680 0
0.011832 0.006757 0
0.010785 0.007630 0
0.009482 0.008261 0
0.007978 0.008600 0
0.006340 0.008578 0
0.004651 0.008114 0
0.003014 0.007115 0
0.001562 0.005485 0
0.000476 0.003137 0
0.000000 0.000000 0
0.000000 0.000000 0
-0.001055 0.007038 0
-0.003870 0.013611 0
-0.008145 0.019359 0
-0.013591 0.023968 0
-0.019913 0.027196 0
-0.026808 0.028904 0
-0.033967 0.029069 0
-0.041093 0.027772 0
-0.047912 0.025188 0
-0.054184 0.021554 0
-0.059715 0.017140 0
-0.064357 0.012220 0
-0.068007 0.007049 0
-0.070606 0.001855 0
-0.072130 -0.003174 0
-0.072593 -0.007888 0
-0.072032 -0.012169 0
-0.070505 -0.015928 0
-0.068089 -0.019101 0
-0.064874 -0.021648 0
-0.060966 -0.023550 0
-0.056478 -0.024806 0
-0.051530 -0.025435 0
-0.046246 -0.025470 0
-0.040752 -0.024955 0
-0.035166 -0.023949 0
-0.029605 -0.022516 0
-0.024174 -0.020727 0
-0.018969 -0.018655 0
-0.014071 -0.016371 0
-0.009550 -0.013946 0
-0.005458 -0.011443 0
-0.001838 -0.008921 0
0.001284 -0.006428 0
0.003895 -0.004008 0
0.005994 -0.001694 0
0.007587 0.000487 0
0.008690 0.002510 0
0.009329 0.004353 0
0.009538 0.006000 0
0.009352 0.007428 0
0.008813 0.008606 0
0.007968 0.009491 0
0.006869 0.010023 0
0.005578 0.010121 0
0.004173 0.009687 0
0.002752 0.008598 0
0.001450 0.006718 0
0.000449 0.003903 0
0.000000 0.000000 0
0.000000 0.000000 0
-0.001130 0.009054 0
-0.004158 0.017307 0
-0.008763 0.024428 0
-0.014637 0.030105 0
-0.021468 0.034095 0
-0.028942 0.036253 0
-0.036744 0.036560 0
-0.044570 0.035117 0
-0.052143 0.032128 0
-0.059220 0.027868 0
-0.065599 0.022652 0
-0.071123 0.016799 0
-0.075678 0.010607 0
-0.079190 0.004344 0
-0.081620 -0.001767 0
-0.082963 -0.007547 0
-0.083240 -0.012854 0
-0.082489 -0.017579 0
-0.080770 -0.021642 0
-0.078157 -0.024988 0
-0.074740 -0.027586 0
-0.070620 -0.029425 0
-0.065909 -0.030516 0
-0.060726 -0.030889 0
-0.055193 -0.030589 0
-0.049434 -0.029676 0
-0.043572 -0.028221 0
-0.037721 -0.026303 0
-0.031989 -0.024007 0
-0.026473 -0.021416 0
-0.021257 -0.018615 0
-0.016409 -0.015681 0
-0.011987 -0.012688 0
-0.008030 -0.009697 0
-0.004567 -0.006765 0
-0.001613 -0.003936 0
0.000829 -0.001247 0
0.002766 0.001268 0
0.004210 0.003577 0
0.005185 0.005657 0
0.005725 0.007481 0
0.005865 0.009014 0
0.005647 0.010206 0
0.005117 0.010990 0
0.004329 0.011274 0
0.003353 0.010940 0
0.002280 0.009837 0
0.001235 0.007789 0
0.000393 0.004587 0
0.000000 0.000000 0
0.000000 0.000000 0
-0.001186 0.011196 0
-0.004378 0.021244 0
-0.009246 0.029838 0
-0.015471 0.036673 0
-0.022734 0.041501 0
-0.030715 0.044180 0
-0.039095 0.044697 0
-0.047571 0.043171 0
-0.055864 0.039838 0
-0.063730 0.035010 0
-0.070964 0.029043 0
-0.077402 0.022299 0
-0.082920 0.015116 0
-0.087430 0.007797 0
-0.090876 0.000599 0
-0.093233 -0.006269 0
-0.094499 -0.012644 0
-0.094696 -0.018398 0
-0.093861 -0.023433 0
-0.092047 -0.027678 0
-0.089325 -0.031087 0
-0.085778 -0.033637 0
-0.081503 -0.035330 0
-0.076610 -0.036186 0
-0.071215 -0.036247 0
-0.065441 -0.035570 0
-0.059411 -0.034230 0
-0.053250 -0.032310 0
-0.047073 -0.029902 0
-0.040991 -0.027104 0
-0.035103 -0.024010 0
-0.029495 -0.020713 0
-0.024238 -0.017299 0
-0.019391 -0.013847 0
-0.014998 -0.010425 0
-0.011087 -0.007090 0
-0.007676 -0.003892 0
-0.004770 -0.000871 0
-0.002368 0.001934 0
-0.000463 0.004485 0
0.000969 0.006748 0
0.001956 0.008684 0
0.002532 0.010240 0
0.002733 0.011341 0
0.002604 0.011885 0
0.002202 0.011736 0
0.001604 0.010716 0
0.000920 0.008606 0
0.000310 0.005138 0
0.000000 0.000000 0
0.000000 0.000000 0
-0.001224 0.013431 0
-0.004537 0.025367 0
-0.009607 0.035521 0
-0.016112 0.043594 0
-0.023732 0.049339 0
-0.032144 0.052614 0
-0.041032 0.053416 0
-0.050097 0.051886 0
-0.059063 0.048287 0
-0.067688 0.042968 0
-0.075765 0.036324 0
-0.083127 0.028755 0
-0.089641 0.020635 0
-0.095207 0.012300 0
-0.099751 0.004035 0
-0.103226 -0.003925 0
-0.105611 -0.011391 0
-0.106903 -0.018217 0
-0.107115 -0.024291 0
-0.106279 -0.029524 0
-0.104439 -0.033855 0
-0.101659 -0.037246 0
-0.098016 -0.039684 0
-0.093603 -0.041177 0
-0.088527 -0.041758 0
-0.082904 -0.041480 0
-0.076856 -0.040412 0
-0.070509 -0.038642 0
-0.063988 -0.036265 0
-0.057414 -0.033386 0
-0.050899 -0.030111 0
-0.044547 -0.026546 0
-0.038446 -0.022791 0
-0.032672 -0.018938 0
-0.027286 -0.015069 0
-0.022337 -0.011257 0
-0.017856 -0.007564 0
-0.013864 -0.004040 0
-0.010372 -0.000730 0
-0.007385 0.002320 0
-0.004900 0.005062 0
-0.002902 0.007451 0
-0.001370 0.009429 0
-0.000278 0.010918 0
0.000406 0.011805 0
0.000721 0.011939 0
0.000726 0.011119 0
0.000508 0.009083 0
0.000199 0.005507 0
0.000000 0.000000 0
0.000000 0.000000 0
-0.001249 0.015732 0
-0.004644 0.029627 0
-0.009860 0.041413 0
-0.016576 0.050797 0
-0.024476 0.057532 0
-0.033243 0.061480 0
-0.042565 0.062650 0
-0.052150 0.061202 0
-0.061729 0.057428 0
-0.071063 0.051711 0
-0.079950 0.044482 0
-0.088220 0.036174 0
-0.095735 0.027195 0
-0.102384 0.017907 0
-0.108079 0.008618 0
-0.112750 -0.000409 0
-0.116352 -0.008967 0
-0.118857 -0.016894 0
-0.120256 -0.024057 0
-0.120552 -0.030354 0
-0.119765 -0.035707 0
-0.117932 -0.040061 0
-0.115108 -0.043386 0
-0.111365 -0.045675 0
-0.106793 -0.046946 0
-0.101496 -0.047242 0
-0.095591 -0.046625 0
-0.089202 -0.045178 0
-0.082457 -0.042997 0
-0.075487 -0.040192 0
-0.068416 -0.036877 0
-0.061361 -0.033167 0
-0.054429 -0.029174 0
-0.047716 -0.025006 0
-0.041301 -0.020760 0
-0.035251 -0.016521 0
-0.029617 -0.012364 0
-0.024439 -0.008354 0
-0.019742 -0.004546 0
-0.015545 -0.000988 0
-0.011860 0.002265 0
-0.008695 0.005154 0
-0.006048 0.007615 0
-0.003908 0.009565 0
-0.002261 0.010886 0
-0.001087 0.011416 0
-0.000353 0.010930 0
-0.000003 0.009133 0
0.000061 0.005646 0
0.000000 0.000000 0
0.000000 0.000001 0
-0.001260 0.018075 0
-0.004704 0.033978 0
-0.010014 0.047454 0
-0.016878 0.058211 0
-0.024986 0.066004 0
-0.034028 0.070702 0
-0.043704 0.072324 0
-0.053731 0.071050 0
-0.063849 0.067200 0
-0.073828 0.061189 0
-0.083471 0.053481 0
-0.092609 0.044540 0
-0.101101 0.034799 0
-0.108828 0.024643 0
-0.115690 0.014401 0
-0.121601 0.004349 0
-0.126485 -0.005284 0
-0.130293 -0.014314 0
-0.132987 -0.022596 0
-0.134546 -0.030015 0
-0.134960 -0.036475 0
-0.134239 -0.041903 0
-0.132410 -0.046251 0
-0.129520 -0.049492 0
-0.125637 -0.051627 0
-0.120849 -0.052682 0
-0.115260 -0.052707 0
-0.108988 -0.051775 0
-0.102161 -0.049980 0
-0.094913 -0.047428 0
-0.087379 -0.044238 0
-0.079690 -0.040533 0
-0.071969 -0.036436 0
-0.064330 -0.032066 0
-0.056873 -0.027534 0
-0.049685 -0.022941 0
-0.042838 -0.018376 0
-0.036392 -0.013915 0
-0.030393 -0.009624 0
-0.024877 -0.005563 0
-0.019870 -0.001788 0
-0.015400 0.001640 0
-0.011487 0.004643 0
-0.008148 0.007131 0
-0.005391 0.008984 0
-0.003220 0.010032 0
-0.001634 0.010035 0
-0.000613 0.008669 0
-0.000105 0.005504 0
0.000000 -0.000000 0
0.000000 0.000001 0
-0.001262 0.020437 0
-0.004724 0.038381 0
-0.010082 0.053587 0
-0.017033 0.065768 0
-0.025276 0.074681 0
-0.034516 0.080198 0
-0.044463 0.082354 0
-0.054848 0.081348 0
-0.065421 0.077525 0
-0.075965 0.071333 0
-0.086288 0.063262 0
-0.096228 0.053804 0
-0.105645 0.043415 0
-0.114414 0.032496 0
-0.122425 0.021390 0
-0.129578 0.010385 0
-0.135778 -0.000275 0
-0.140944 -0.010391 0
-0.145011 -0.019804 0
-0.147932 -0.028381 0
-0.149670 -0.036013 0
-0.150204 -0.042611 0
-0.149529 -0.048105 0
-0.147666 -0.052447 0
-0.144654 -0.055617 0
-0.140559 -0.057620 0
-0.135468 -0.058487 0
-0.129485 -0.058277 0
-0.122735 -0.057072 0
-0.115351 -0.054974 0
-0.107473 -0.052100 0
-0.099244 -0.048577 0
-0.090801 -0.044535 0
-0.082277 -0.040103 0
-0.073792 -0.035405 0
-0.065454 -0.030556 0
-0.057359 -0.025657 0
-0.049588 -0.020799 0
-0.042209 -0.016061 0
-0.035281 -0.011511 0
-0.028851 -0.007212 0
-0.022962 -0.003229 0
-0.017657 0.000364 0
-0.012979 0.003469 0
-0.008972 0.005958 0
-0.005672 0.007659 0
-0.003113 0.008323 0
-0.001322 0.007604 0
-0.000300 0.005033 0
0.000000 -0.000000 0
0.000000 0.000001 0
-0.001254 0.022799 0
-0.004709 0.042798 0
-0.010072 0.059762 0
-0.017054 0.073405 0
-0.025367 0.083487 0
-0.034727 0.089889 0
-0.044862 0.092655 0
-0.055514 0.092008 0
-0.066451 0.088317 0
-0.077465 0.082056 0
-0.088378 0.073744 0
-0.099033 0.063896 0
-0.109293 0.052984 0
-0.119036 0.041423 0
-0.128144 0.029565 0
-0.136506 0.017702 0
-0.144012 0.006082 0
-0.150554 -0.005080 0
-0.156039 -0.015608 0
-0.160390 -0.025356 0
-0.163543 -0.034204 0
-0.165446 -0.042044 0
-0.166065 -0.048789 0
-0.165385 -0.054367 0
-0.163417 -0.058734 0
-0.160197 -0.061869 0
-0.155789 -0.063781 0
-0.150279 -0.064508 0
-0.143779 -0.064114 0
-0.136418 -0.062690 0
-0.128338 -0.060345 0
-0.119687 -0.057205 0
-0.110617 -0.053403 0
-0.101275 -0.049076 0
-0.091804 -0.044357 0
-0.082333 -0.039374 0
-0.072981 -0.034242 0
-0.063853 -0.029064 0
-0.055042 -0.023931 0
-0.046630 -0.018921 0
-0.038690 -0.014106 0
-0.031288 -0.009555 0
-0.024490 -0.005340 0
-0.018363 -0.001554 0
-0.012983 0.001677 0
-0.008429 0.004173 0
-0.004785 0.005685 0
-0.002128 0.005855 0
-0.000523 0.004182 0
0.000000 -0.000000 0
0.000000 0.000001 0
-0.001238 0.025145 0
-0.004662 0.047199 0
-0.009994 0.065932 0
-0.016957 0.081063 0
-0.025277 0.092354 0
-0.034684 0.099693 0
-0.044923 0.103141 0
-0.055752 0.102936 0
-0.066953 0.099476 0
-0.078335 0.093259 0
-0.089731 0.084829 0
-0.100994 0.074719 0
-0.111996 0.063418 0
-0.122614 0.051347 0
-0.132732 0.038861 0
-0.142233 0.026254 0
-0.150993 0.013773 0
-0.158890 0.001635 0
-0.165800 -0.009968 0
-0.171612 -0.020877 0
-0.176237 -0.030957 0
-0.179595 -0.040089 0
-0.181617 -0.048165 0
-0.182257 -0.055095 0
-0.181489 -0.060805 0
-0.179318 -0.065248 0
-0.175775 -0.068405 0
-0.170926 -0.070286 0
-0.164861 -0.070932 0
-0.157699 -0.070416 0
-0.149576 -0.068832 0
-0.140645 -0.066298 0
-0.131067 -0.062946 0
-0.121004 -0.058916 0
-0.110616 -0.054348 0
-0.100055 -0.049379 0
-0.089465 -0.044137 0
-0.078976 -0.038738 0
-0.068706 -0.033284 0
-0.058765 -0.027863 0
-0.049251 -0.022554 0
-0.040259 -0.017429 0
-0.031882 -0.012562 0
-0.024218 -0.008038 0
-0.017373 -0.003975 0
-0.011467 -0.000539 0
-0.006636 0.002021 0
-0.003025 0.003342 0
-0.000773 0.002905 0
0.000000 -0.000000 0
0.000000 0.000001 0
-0.001216 0.027461 0
-0.004591 0.051554 0
-0.009859 0.072056 0
-0.016758 0.088687 0
-0.025027 0.101215 0
-0.034413 0.109535 0
-0.044674 0.113722 0
-0.055588 0.114038 0
-0.066953 0.110900 0
-0.078594 0.104834 0
-0.090357 0.096403 0
-0.102108 0.086160 0
-0.113726 0.074604 0
-0.125099 0.062161 0
-0.136112 0.049184 0
-0.146645 0.035963 0
-0.156572 0.022740 0
-0.165756 0.009726 0
-0.174054 -0.002886 0
-0.181322 -0.014919 0
-0.187438 -0.026221 0
-0.192298 -0.036664 0
-0.195802 -0.046126 0
-0.197867 -0.054495 0
-0.198434 -0.061673 0
-0.197468 -0.067583 0
-0.194968 -0.072173 0
-0.190965 -0.075422 0
-0.185526 -0.077341 0
-0.178750 -0.077975 0
-0.170763 -0.077398 0
-0.161715 -0.075714 0
-0.151771 -0.073044 0
-0.141107 -0.069527 0
-0.129898 -0.065306 0
-0.118318 -0.060525 0
-0.106536 -0.055321 0
-0.094709 -0.049823 0
-0.082983 -0.044141 0
-0.071494 -0.038376 0
-0.060371 -0.032612 0
-0.049738 -0.026923 0
-0.039720 -0.021381 0
-0.030447 -0.016064 0
-0.022064 -0.011075 0
-0.014732 -0.006563 0
-0.008640 -0.002757 0
-0.004003 -0.000009 0
-0.001048 0.001158 0
0.000000 -0.000000 0
0.000000 0.000001 0
-0.001189 0.029736 0
-0.004499 0.055841 0
-0.009676 0.078099 0
-0.016472 0.096231 0
-0.024639 0.110009 0
-0.033940 0.119341 0
-0.044147 0.124316 0
-0.055057 0.125215 0
-0.066485 0.122482 0
-0.078272 0.116663 0
-0.090279 0.108343 0
-0.102386 0.098089 0
-0.114485 0.086410 0
-0.126470 0.073733 0
-0.138236 0.060407 0
-0.149666 0.046713 0
-0.160632 0.032884 0
-0.170993 0.019117 0
-0.180595 0.005598 0
-0.189272 -0.007492 0
-0.196862 -0.019981 0
-0.203232 -0.031726 0
-0.208258 -0.042596 0
-0.211822 -0.052462 0
-0.213829 -0.061204 0
-0.214203 -0.068715 0
-0.212905 -0.074909 0
-0.209928 -0.079728 0
-0.205306 -0.083148 0
-0.199111 -0.085178 0
-0.191451 -0.085866 0
-0.182468 -0.085289 0
-0.172324 -0.083554 0
-0.161202 -0.080789 0
-0.149294 -0.077136 0
-0.136794 -0.072740 0
-0.123894 -0.067746 0
-0.110780 -0.062292 0
-0.097626 -0.056499 0
-0.084600 -0.050475 0
-0.071861 -0.044309 0
-0.059566 -0.038080 0
-0.047872 -0.031852 0
-0.036947 -0.025695 0
-0.026973 -0.019690 0
-0.018161 -0.013962 0
-0.010756 -0.008708 0
-0.005042 -0.004251 0
-0.001343 -0.001097 0
0.000000 -0.000000 0
0.000000 0.000001 0
-0.001159 0.031959 0
-0.004390 0.060041 0
-0.009456 0.084030 0
-0.016116 0.103651 0
-0.024137 0.118682 0
-0.033294 0.129043 0
-0.043377 0.134840 0
-0.054197 0.136375 0
-0.065589 0.134115 0
-0.077409 0.128627 0
-0.089536 0.120518 0
-0.101862 0.110367 0
-0.114293 0.098688 0
-0.126736 0.085912 0
-0.139094 0.072379 0
-0.151258 0.058359 0
-0.163107 0.044067 0
-0.174498 0.029689 0
-0.185274 0.015393 0
-0.195260 0.001349 0
-0.204266 -0.012260 0
-0.212115 -0.025269 0