# vtk DataFile Version 2.0
generated by CFD-lab course output (written by Tobias Neckel) 
ASCII

DATASET STRUCTURED_GRID
DIMENSIONS  51 51 1 
POINTS 2601 float

0.000000 0.000000 0
0.020000 0.000000 0
0.040000 0.000000 0
0.060000 0.000000 0
0.080000 0.000000 0
0.100000 0.000000 0
0.120000 0.000000 0
0.140000 0.000000 0
0.160000 0.000000 0
0.180000 0.000000 0
0.200000 0.000000 0
0.220000 0.000000 0
0.240000 0.000000 0
0.260000 0.000000 0
0.280000 0.000000 0
0.300000 0.000000 0
0.320000 0.000000 0
0.340000 0.000000 0
0.360000 0.000000 0
0.380000 0.000000 0
0.400000 0.000000 0
0.420000 0.000000 0
0.440000 0.000000 0
0.460000 0.000000 0
0.480000 0.000000 0
0.500000 0.000000 0
0.520000 0.000000 0
0.540000 0.000000 0
0.560000 0.000000 0
0.580000 0.000000 0
0.600000 0.000000 0
0.620000 0.000000 0
0.640000 0.000000 0
0.660000 0.000000 0
0.680000 0.000000 0
0.700000 0.000000 0
0.720000 0.000000 0
0.740000 0.000000 0
0.760000 0.000000 0
0.780000 0.000000 0
0.800000 0.000000 0
0.820000 0.000000 0
0.840000 0.000000 0
0.860000 0.000000 0
0.880000 0.000000 0
0.900000 0.000000 0
0.920000 0.000000 0
0.940000 0.000000 0
0.960000 0.000000 0
0.980000 0.000000 0
1.000000 0.000000 0
0.000000 0.020000 0
0.020000 0.020000 0
0.040000 0.020000 0
0.060000 0.020000 0
0.080000 0.020000 0
0.100000 0.020000 0
0.120000 0.020000 0
0.140000 0.020000 0
0.160000 0.020000 0
0.180000 0.020000 0
0.200000 0.020000 0
0.220000 0.020000 0
0.240000 0.020000 0
0.260000 0.020000 0
0.280000 0.020000 0
0.300000 0.020000 0
0.320000 0.020000 0
0.340000 0.020000 0
0.360000 0.020000 0
0.380000 0.020000 0
0.400000 0.020000 0
0.420000 0.020000 0
0.440000 0.020000 0
0.460000 0.020000 0
0.480000 0.020000 0
0.500000 0.020000 0
0.520000 0.020000 0
0.540000 0.020000 0
0.560000 0.020000 0
0.580000 0.020000 0
0.600000 0.020000 0
0.620000 0.020000 0
0.640000 0.020000 0
0.660000 0.020000 0
0.680000 0.020000 0
0.700000 0.020000 0
0.720000 0.020000 0
0.740000 0.020000 0
0.760000 0.020000 0
0.780000 0.020000 0
0.800000 0.020000 0
0.820000 0.020000 0
0.840000 0.020000 0
0.860000 0.020000 0
0.880000 0.020000 0
0.900000 0.020000 0
0.920000 0.020000 0
0.940000 0.020000 0
0.960000 0.020000 0
0.980000 0.020000 0
1.000000 0.020000 0
0.000000 0.040000 0
0.020000 0.040000 0
0.040000 0.040000 0
0.060000 0.040000 0
0.080000 0.040000 0
0.100000 0.040000 0
0.120000 0.040000 0
0.140000 0.040000 0
0.160000 0.040000 0
0.180000 0.040000 0
0.200000 0.040000 0
0.220000 0.040000 0
0.240000 0.040000 0
0.260000 0.040000 0
0.280000 0.040000 0
0.300000 0.040000 0
0.320000 0.040000 0
0.340000 0.040000 0
0.360000 0.040000 0
0.380000 0.040000 0
0.400000 0.040000 0
0.420000 0.040000 0
0.440000 0.040000 0
0.460000 0.040000 0
0.480000 0.040000 0
0.500000 0.040000 0
0.520000 0.040000 0
0.540000 0.040000 0
0.560000 0.040000 0
0.580000 0.040000 0
0.600000 0.040000 0
0.620000 0.040000 0
0.640000 0.040000 0
0.660000 0.040000 0
0.680000 0.040000 0
0.700000 0.040000 0
0.720000 0.040000 0
0.740000 0.040000 0
0.760000 0.040000 0
0.780000 0.040000 0
0.800000 0.040000 0
0.820000 0.040000 0
0.840000 0.040000 0
0.860000 0.040000 0
0.880000 0.040000 0
0.900000 0.040000 0
0.920000 0.040000 0
0.940000 0.040000 0
0.960000 0.040000 0
0.980000 0.040000 0
1.000000 0.040000 0
0.000000 0.060000 0
0.020000 0.060000 0
0.040000 0.060000 0
0.060000 0.060000 0
0.080000 0.060000 0
0.100000 0.060000 0
0.120000 0.060000 0
0.140000 0.060000 0
0.160000 0.060000 0
0.180000 0.060000 0
0.200000 0.060000 0
0.220000 0.060000 0
0.240000 0.060000 0
0.260000 0.060000 0
0.280000 0.060000 0
0.300000 0.060000 0
0.320000 0.060000 0
0.340000 0.060000 0
0.360000 0.060000 0
0.380000 0.060000 0
0.400000 0.060000 0
0.420000 0.060000 0
0.440000 0.060000 0
0.460000 0.060000 0
0.480000 0.060000 0
0.500000 0.060000 0
0.520000 0.060000 0
0.540000 0.060000 0
0.560000 0.060000 0
0.580000 0.060000 0
0.600000 0.060000 0
0.620000 0.060000 0
0.640000 0.060000 0
0.660000 0.060000 0
0.680000 0.060000 0
0.700000 0.060000 0
0.720000 0.060000 0
0.740000 0.060000 0
0.760000 0.060000 0
0.780000 0.060000 0
0.800000 0.060000 0
0.820000 0.060000 0
0.840000 0.060000 0
0.860000 0.060000 0
0.880000 0.060000 0
0.900000 0.060000 0
0.920000 0.060000 0
0.940000 0.060000 0
0.960000 0.060000 0
0.980000 0.060000 0
1.000000 0.060000 0
0.000000 0.080000 0
0.020000 0.080000 0
0.040000 0.080000 0
0.060000 0.080000 0
0.080000 0.080000 0
0.100000 0.080000 0
0.120000 0.080000 0
0.140000 0.080000 0
0.160000 0.080000 0
0.180000 0.080000 0
0.200000 0.080000 0
0.220000 0.080000 0
0.240000 0.080000 0
0.260000 0.080000 0
0.280000 0.080000 0
0.300000 0.080000 0
0.320000 0.080000 0
0.340000 0.080000 0
0.360000 0.080000 0
0.380000 0.080000 0
0.400000 0.080000 0
0.420000 0.080000 0
0.440000 0.080000 0
0.460000 0.080000 0
0.480000 0.080000 0
0.500000 0.080000 0
0.520000 0.080000 0
0.540000 0.080000 0
0.560000 0.080000 0
0.580000 0.080000 0
0.600000 0.080000 0
0.620000 0.080000 0
0.640000 0.080000 0
0.660000 0.080000 0
0.680000 0.080000 0
0.700000 0.080000 0
0.720000 0.080000 0
0.740000 0.080000 0
0.760000 0.080000 0
0.780000 0.080000 0
0.800000 0.080000 0
0.820000 0.080000 0
0.840000 0.080000 0
0.860000 0.080000 0
0.880000 0.080000 0
0.900000 0.080000 0
0.920000 0.080000 0
0.940000 0.080000 0
0.960000 0.080000 0
0.980000 0.080000 0
1.000000 0.080000 0
0.000000 0.100000 0
0.020000 0.100000 0
0.040000 0.100000 0
0.060000 0.100000 0
0.080000 0.100000 0
0.100000 0.100000 0
0.120000 0.100000 0
0.140000 0.100000 0
0.160000 0.100000 0
0.180000 0.100000 0
0.200000 0.100000 0
0.220000 0.100000 0
0.240000 0.100000 0
0.260000 0.100000 0
0.280000 0.100000 0
0.300000 0.100000 0
0.320000 0.100000 0
0.340000 0.100000 0
0.360000 0.100000 0
0.380000 0.100000 0
0.400000 0.100000 0
0.420000 0.100000 0
0.440000 0.100000 0
0.460000 0.100000 0
0.480000 0.100000 0
0.500000 0.100000 0
0.520000 0.100000 0
0.540000 0.100000 0
0.560000 0.100000 0
0.580000 0.100000 0
0.600000 0.100000 0
0.620000 0.100000 0
0.640000 0.100000 0
0.660000 0.100000 0
0.680000 0.100000 0
0.700000 0.100000 0
0.720000 0.100000 0
0.740000 0.100000 0
0.760000 0.100000 0
0.780000 0.100000 0
0.800000 0.100000 0
0.820000 0.100000 0
0.840000 0.100000 0
0.860000 0.100000 0
0.880000 0.100000 0
0.900000 0.100000 0
0.920000 0.100000 0
0.940000 0.100000 0
0.960000 0.100000 0
0.980000 0.100000 0
1.000000 0.100000 0
0.000000 0.120000 0
0.020000 0.120000 0
0.040000 0.120000 0
0.060000 0.120000 0
0.080000 0.120000 0
0.100000 0.120000 0
0.120000 0.120000 0
0.140000 0.120000 0
0.160000 0.120000 0
0.180000 0.120000 0
0.200000 0.120000 0
0.220000 0.120000 0
0.240000 0.120000 0
0.260000 0.120000 0
0.280000 0.120000 0
0.300000 0.120000 0
0.320000 0.120000 0
0.340000 0.120000 0
0.360000 0.120000 0
0.380000 0.120000 0
0.400000 0.120000 0
0.420000 0.120000 0
0.440000 0.120000 0
0.460000 0.120000 0
0.480000 0.120000 0
0.500000 0.120000 0
0.520000 0.120000 0
0.540000 0.120000 0
0.560000 0.120000 0
0.580000 0.120000 0
0.600000 0.120000 0
0.620000 0.120000 0
0.640000 0.120000 0
0.660000 0.120000 0
0.680000 0.120000 0
0.700000 0.120000 0
0.720000 0.120000 0
0.740000 0.120000 0
0.760000 0.120000 0
0.780000 0.120000 0
0.800000 0.120000 0
0.820000 0.120000 0
0.840000 0.120000 0
0.860000 0.120000 0
0.880000 0.120000 0
0.900000 0.120000 0
0.920000 0.120000 0
0.940000 0.120000 0
0.960000 0.120000 0
0.980000 0.120000 0
1.000000 0.120000 0
0.000000 0.140000 0
0.020000 0.140000 0
0.040000 0.140000 0
0.060000 0.140000 0
0.080000 0.140000 0
0.100000 0.140000 0
0.120000 0.140000 0
0.140000 0.140000 0
0.160000 0.140000 0
0.180000 0.140000 0
0.200000 0.140000 0
0.220000 0.140000 0
0.240000 0.140000 0
0.260000 0.140000 0
0.280000 0.140000 0
0.300000 0.140000 0
0.320000 0.140000 0
0.340000 0.140000 0
0.360000 0.140000 0
0.380000 0.140000 0
0.400000 0.140000 0
0.420000 0.140000 0
0.440000 0.140000 0
0.460000 0.140000 0
0.480000 0.140000 0
0.500000 0.140000 0
0.520000 0.140000 0
0.540000 0.140000 0
0.560000 0.140000 0
0.580000 0.140000 0
0.600000 0.140000 0
0.620000 0.140000 0
0.640000 0.140000 0
0.660000 0.140000 0
0.680000 0.140000 0
0.700000 0.140000 0
0.720000 0.140000 0
0.740000 0.140000 0
0.760000 0.140000 0
0.780000 0.140000 0
0.800000 0.140000 0
0.820000 0.140000 0
0.840000 0.140000 0
0.860000 0.140000 0
0.880000 0.140000 0
0.900000 0.140000 0
0.920000 0.140000 0
0.940000 0.140000 0
0.960000 0.140000 0
0.980000 0.140000 0
1.000000 0.140000 0
0.000000 0.160000 0
0.020000 0.160000 0
0.040000 0.160000 0
0.060000 0.160000 0
0.080000 0.160000 0
0.100000 0.160000 0
0.120000 0.160000 0
0.140000 0.160000 0
0.160000 0.160000 0
0.180000 0.160000 0
0.200000 0.160000 0
0.220000 0.160000 0
0.240000 0.160000 0
0.260000 0.160000 0
0.280000 0.160000 0
0.300000 0.160000 0
0.320000 0.160000 0
0.340000 0.160000 0
0.360000 0.160000 0
0.380000 0.160000 0
0.400000 0.160000 0
0.420000 0.160000 0
0.440000 0.160000 0
0.460000 0.160000 0
0.480000 0.160000 0
0.500000 0.160000 0
0.520000 0.160000 0
0.540000 0.160000 0
0.560000 0.160000 0
0.580000 0.160000 0
0.600000 0.160000 0
0.620000 0.160000 0
0.640000 0.160000 0
0.660000 0.160000 0
0.680000 0.160000 0
0.700000 0.160000 0
0.720000 0.160000 0
0.740000 0.160000 0
0.760000 0.160000 0
0.780000 0.160000 0
0.800000 0.160000 0
0.820000 0.160000 0
0.840000 0.160000 0
0.860000 0.160000 0
0.880000 0.160000 0
0.900000 0.160000 0
0.920000 0.160000 0
0.940000 0.160000 0
0.960000 0.160000 0
0.980000 0.160000 0
1.000000 0.160000 0
0.000000 0.180000 0
0.020000 0.180000 0
0.040000 0.180000 0
0.060000 0.180000 0
0.080000 0.180000 0
0.100000 0.180000 0
0.120000 0.180000 0
0.140000 0.180000 0
0.160000 0.180000 0
0.180000 0.180000 0
0.200000 0.180000 0
0.220000 0.180000 0
0.240000 0.180000 0
0.260000 0.180000 0
0.280000 0.180000 0
0.300000 0.180000 0
0.320000 0.180000 0
0.340000 0.180000 0
0.360000 0.180000 0
0.380000 0.180000 0
0.400000 0.180000 0
0.420000 0.180000 0
0.440000 0.180000 0
0.460000 0.180000 0
0.480000 0.180000 0
0.500000 0.180000 0
0.520000 0.180000 0
0.540000 0.180000 0
0.560000 0.180000 0
0.580000 0.180000 0
0.600000 0.180000 0
0.620000 0.180000 0
[...]
POINT_DATA 2601 

VECTORS velocity float
0.000000 0.000000 0
-0.000000 0.000000 0
-0.000000 0.000000 0
-0.000000 0.000000 0
-0.000000 0.000000 0
-0.000000 0.000000 0
0.000000 0.000000 0
0.000000 0.000000 0
0.000000 0.000000 0
0.000000 0.000000 0
-0.000000 0.000000 0
-0.000000 0.000000 0
-0.000000 0.000000 0
-0.000000 0.000000 0
0.000000 0.000000 0
0.000000 0.000000 0
0.000000 0.000000 0
0.000000 0.000000 0
-0.000000 0.000000 0
-0.000000 0.000000 0
-0.000000 0.000000 0
0.000000 0.000000 0
0.000000 0.000000 0
0.000000 0.000000 0
0.000000 0.000000 0
0.000000 0.000000 0
-0.000000 0.000000 0
-0.000000 0.000000 0
-0.000000 0.000000 0
-0.000000 0.000000 0
-0.000000 0.000000 0
-0.000000 0.000000 0
0.000000 0.000000 0
0.000000 0.000000 0
0.000000 0.000000 0
0.000000 0.000000 0
0.000000 0.000000 0
0.000000 0.000000 0
0.000000 0.000000 0
-0.000000 0.000000 0
0.000000 0.000000 0
0.000000 0.000000 0
0.000000 0.000000 0
0.000000 0.000000 0
-0.000000 0.000000 0
-0.000000 0.000000 0
-0.000000 0.000000 0
-0.000000 0.000000 0
-0.000000 0.000000 0
0.000000 0.000000 0
0.000000 0.000000 0
0.000000 -0.000000 0
-0.000006 0.000010 0
-0.000357 0.000248 0
-0.001134 0.000512 0
-0.002302 0.000732 0
-0.003768 0.000882 0
-0.005414 0.000953 0
-0.007115 0.000948 0
-0.008752 0.000876 0
-0.010222 0.000747 0
-0.011441 0.000578 0
-0.012349 0.000383 0
-0.012913 0.000176 0
-0.013119 -0.000030 0
-0.012972 -0.000226 0
-0.012493 -0.000406 0
-0.011712 -0.000562 0
-0.010670 -0.000692 0
-0.009412 -0.000794 0
-0.007985 -0.000867 0
-0.006439 -0.000912 0
-0.004819 -0.000931 0
-0.003173 -0.000925 0
-0.001542 -0.000897 0
0.000037 -0.000849 0
0.001531 -0.000785 0
0.002911 -0.000710 0
0.004157 -0.000624 0
0.005253 -0.000533 0
0.006188 -0.000438 0
0.006955 -0.000342 0
0.007554 -0.000247 0
0.007985 -0.000154 0
0.008253 -0.000066 0
0.008366 0.000017 0
0.008333 0.000095 0
0.008162 0.000167 0
0.007865 0.000232 0
0.007452 0.000292 0
0.006935 0.000346 0
0.006323 0.000393 0
0.005631 0.000434 0
0.004872 0.000466 0
0.004064 0.000488 0
0.003230 0.000494 0
0.002399 0.000479 0
0.001613 0.000434 0
0.000923 0.000352 0
0.000390 0.000226 0
0.000074 0.000074 0
0.000000 -0.000000 0
0.000000 -0.000000 0
-0.000230 0.000357 0
-0.001098 0.001128 0
-0.002648 0.001945 0
-0.004813 0.002634 0
-0.007451 0.003112 0
-0.010382 0.003347 0
-0.013407 0.003338 0
-0.016332 0.003107 0
-0.018985 0.002688 0
-0.021225 0.002127 0
-0.022949 0.001472 0
-0.024091 0.000769 0
-0.024622 0.000059 0
-0.024544 -0.000626 0
-0.023883 -0.001260 0
-0.022685 -0.001822 0
-0.021013 -0.002300 0
-0.018938 -0.002685 0
-0.016539 -0.002974 0
-0.013897 -0.003166 0
-0.011095 -0.003265 0
-0.008211 -0.003278 0
-0.005320 -0.003211 0
-0.002488 -0.003073 0
0.000223 -0.002874 0
0.002761 -0.002626 0
0.005083 -0.002342 0
0.007156 -0.002030 0
0.008957 -0.001702 0
0.010471 -0.001366 0
0.011691 -0.001030 0
0.012616 -0.000700 0
0.013252 -0.000382 0
0.013608 -0.000079 0
0.013697 0.000204 0
0.013537 0.000468 0
0.013144 0.000710 0
0.012537 0.000931 0
0.011738 0.001129 0
0.010766 0.001303 0
0.009644 0.001451 0
0.008401 0.001567 0
0.007066 0.001643 0
0.005681 0.001665 0
0.004296 0.001616 0
0.002976 0.001476 0
0.001798 0.001223 0
0.000852 0.000849 0
0.000228 0.000390 0
0.000000 0.000000 0
0.000000 -0.000000 0
-0.000477 0.001108 0
-0.001882 0.002666 0
-0.004168 0.004228 0
-0.007218 0.005536 0
-0.010855 0.006451 0
-0.014854 0.006907 0
-0.018974 0.006897 0
-0.022975 0.006453 0
-0.026642 0.005641 0
-0.029793 0.004543 0
-0.032292 0.003250 0
-0.034049 0.001850 0
-0.035019 0.000423 0
-0.035194 -0.000966 0
-0.034599 -0.002265 0
-0.033286 -0.003432 0
-0.031325 -0.004439 0
-0.028802 -0.005267 0
-0.025814 -0.005907 0
-0.022461 -0.006356 0
-0.018848 -0.006617 0
-0.015076 -0.006700 0
-0.011244 -0.006620 0
-0.007444 -0.006392 0
-0.003757 -0.006035 0
-0.000257 -0.005570 0
0.002993 -0.005019 0
0.005943 -0.004407 0
0.008554 -0.003753 0
0.010801 -0.003076 0
0.012667 -0.002392 0
0.014147 -0.001715 0
0.015243 -0.001057 0
0.015964 -0.000428 0
0.016323 0.000166 0
0.016341 0.000720 0
0.016038 0.001232 0
0.015441 0.001698 0
0.014576 0.002118 0
0.013471 0.002487 0
0.012157 0.002799 0
0.010670 0.003044 0
0.009053 0.003207 0
0.007355 0.003264 0
0.005639 0.003184 0
0.003983 0.002933 0
0.002476 0.002476 0
0.001228 0.001796 0
0.000356 0.000926 0
0.000000 0.000000 0
0.000000 -0.000000 0
-0.000690 0.002238 0
-0.002584 0.004820 0
-0.005538 0.007282 0
-0.009379 0.009321 0
-0.013892 0.010747 0
-0.018822 0.011466 0
-0.023896 0.011459 0
-0.028848 0.010775 0
-0.033431 0.009506 0
-0.037438 0.007778 0
-0.040711 0.005729 0
-0.043138 0.003496 0
-0.044657 0.001203 0
-0.045251 -0.001046 0
-0.044940 -0.003168 0
-0.043770 -0.005096 0
-0.041814 -0.006783 0
-0.039160 -0.008196 0
-0.035911 -0.009315 0
-0.032178 -0.010132 0
-0.028078 -0.010650 0
-0.023725 -0.010881 0
-0.019235 -0.010843 0
-0.014716 -0.010560 0
-0.010269 -0.010061 0
-0.005984 -0.009377 0
-0.001940 -0.008542 0
0.001797 -0.007591 0
0.005171 -0.006559 0
0.008141 -0.005479 0
0.010681 -0.004376 0
0.012776 -0.003276 0
0.014423 -0.002198 0
0.015625 -0.001160 0
0.016395 -0.000173 0
0.016751 0.000752 0
0.016715 0.001609 0
0.016317 0.002393 0
0.015587 0.003100 0
0.014558 0.003722 0
0.013266 0.004251 0
0.011754 0.004671 0
0.010069 0.004958 0
0.008266 0.005078 0
0.006414 0.004989 0
0.004594 0.004639 0
0.002907 0.003978 0
0.001472 0.002970 0
0.000439 0.001618 0
0.000000 0.000000 0
0.000000 -0.000000 0
-0.000862 0.003692 0
-0.003172 0.007514 0
-0.006711 0.011024 0
-0.011252 0.013890 0
-0.016542 0.015892 0
-0.022302 0.016911 0
-0.028237 0.016923 0
-0.034060 0.015988 0
-0.039506 0.014232 0
-0.044351 0.011823 0
-0.048417 0.008948 0
-0.051578 0.005796 0
-0.053757 0.002536 0
-0.054924 -0.000684 0
-0.055089 -0.003746 0
-0.054291 -0.006558 0
-0.052596 -0.009050 0
-0.050088 -0.011170 0
-0.046868 -0.012888 0
-0.043049 -0.014189 0
-0.038748 -0.015070 0
-0.034089 -0.015543 0
-0.029195 -0.015629 0
-0.024185 -0.015357 0
-0.019173 -0.014767 0
-0.014264 -0.013899 0
-0.009552 -0.012800 0
-0.005118 -0.011517 0
-0.001030 -0.010097 0
0.002654 -0.008586 0
0.005895 -0.007027 0
0.008665 -0.005457 0
0.010948 -0.003906 0
0.012744 -0.002400 0
0.014058 -0.000959 0
0.014905 0.000400 0
0.015304 0.001665 0
0.015285 0.002827 0
0.014879 0.003877 0
0.014121 0.004807 0
0.013052 0.005602 0
0.011714 0.006242 0
0.010158 0.006695 0
0.008440 0.006919 0
0.006629 0.006856 0
0.004809 0.006440 0
0.003084 0.005598 0
0.001583 0.004264 0
0.000478 0.002398 0
0.000000 -0.000000 0
0.000000 0.000000 0
-0.000995 0.005411 0
-0.003649 0.010669 0
-0.007686 0.015362 0
-0.012837 0.019152 0
-0.018816 0.021797 0
-0.025322 0.023161 0
-0.032045 0.023218 0
-0.038684 0.022044 0
-0.044962 0.019797 0
-0.050641 0.016688 0
-0.055531 0.012955 0
-0.059492 0.008836 0
-0.062436 0.004549 0
-0.064317 0.000286 0
-0.065132 -0.003801 0
-0.064909 -0.007590 0
-0.063703 -0.010987 0
-0.061588 -0.013924 0
-0.058656 -0.016354 0
-0.055012 -0.018252 0
-0.050772 -0.019610 0
-0.046057 -0.020434 0
-0.040993 -0.020747 0
-0.035704 -0.020581 0
-0.030312 -0.019981 0
-0.024933 -0.018998 0
-0.019674 -0.017689 0
-0.014629 -0.016113 0
-0.009882 -0.014332 0
-0.005502 -0.012404 0
-0.001544 -0.010386 0
0.001948 -0.008329 0
0.004949 -0.006278 0
0.007443 -0.004270 0
0.009427 -0.002333 0
0.010910 -0.000494 0
0.011906 0.001229 0
0.012437 0.002819 0
0.012535 0.004263 0
0.012235 0.005549 0
0.011576 0.006659 0
0.010600 0.007566 0
0.009357 0.008233 0
0.007902 0.008607 0
0.006303 0.008619 0
0.004640 0.008184 0
0.003017 0.007204 0
0.001569 0.005575 0
0.000480 0.003201 0
0.000000 -0.000000 0
0.000000 0.000000 0
-0.001097 0.007342 0
-0.004028 0.014206 0
-0.008480 0.020210 0
-0.014152 0.025019 0
-0.020735 0.028378 0
-0.027910 0.030141 0
-0.035357 0.030286 0
-0.042764 0.028905 0
-0.049846 0.026189 0
-0.056359 0.022391 0
-0.062102 0.017800 0
-0.066926 0.012701 0
-0.070727 0.007361 0
-0.073448 0.002013 0
-0.075067 -0.003154 0
-0.075601 -0.007987 0
-0.075087 -0.012371 0
-0.073586 -0.016217 0
-0.071175 -0.019464 0
-0.067947 -0.022073 0
-0.064007 -0.024025 0
-0.059470 -0.025322 0
-0.054456 -0.025982 0
-0.049090 -0.026038 0
-0.043498 -0.025538 0
-0.037802 -0.024538 0
-0.032118 -0.023104 0
-0.026554 -0.021309 0
-0.021206 -0.019224 0
-0.016159 -0.016924 0
-0.011483 -0.014477 0
-0.007233 -0.011950 0
-0.003453 -0.009401 0
-0.000171 -0.006878 0
0.002599 -0.004426 0
0.004852 -0.002079 0
0.006596 0.000137 0
0.007844 0.002197 0
0.008618 0.004079 0
0.008953 0.005767 0
0.008884 0.007237 0
0.008450 0.008461 0
0.007699 0.009393 0
0.006680 0.009973 0
0.005456 0.010119 0
0.004103 0.009726 0
0.002720 0.008668 0
0.001440 0.006801 0
0.000448 0.003967 0
0.000000 -0.000000 0
0.000000 0.000000 0
-0.001174 0.009440 0
-0.004322 0.018052 0
-0.009112 0.025485 0
-0.015220 0.031406 0
-0.022323 0.035555 0
-0.030092 0.037783 0
-0.038196 0.038072 0
-0.046322 0.036534 0
-0.054179 0.033392 0
-0.061519 0.028944 0
-0.068135 0.023522 0
-0.073868 0.017461 0
-0.078604 0.011072 0
-0.082270 0.004626 0
-0.084828 -0.001647 0
-0.086276 -0.007570 0
-0.086634 -0.013002 0
-0.085943 -0.017836 0
-0.084264 -0.021993 0
-0.081671 -0.025420 0
-0.078253 -0.028087 0
-0.074112 -0.029986 0
-0.069359 -0.031127 0
-0.064115 -0.031539 0
-0.058502 -0.031270 0
-0.052645 -0.030378 0
-0.046667 -0.028937 0
-0.040685 -0.027025 0
-0.034808 -0.024726 0
-0.029134 -0.022127 0
-0.023750 -0.019312 0
-0.018726 -0.016359 0
-0.014122 -0.013341 0
-0.009981 -0.010321 0
-0.006330 -0.007356 0
-0.003188 -0.004491 0
-0.000561 -0.001762 0
0.001556 0.000796 0
0.003175 0.003154 0
0.004316 0.005284 0
0.005011 0.007161 0
0.005295 0.008751 0
0.005208 0.010003 0
0.004794 0.010849 0
0.004107 0.011196 0
0.003214 0.010921 0
0.002205 0.009867 0
0.001204 0.007847 0
0.000386 0.004641 0
0.000000 0.000000 0
0.000000 0.000000 0
-0.001230 0.011665 0
-0.004544 0.022143 0
-0.009599 0.031107 0
-0.016064 0.038231 0
-0.023605 0.043250 0
-0.031888 0.046014 0
-0.040581 0.046516 0
-0.049369 0.044888 0
-0.057962 0.041386 0
-0.066109 0.036347 0
-0.073601 0.030149 0
-0.080273 0.023170 0
-0.086000 0.015763 0
-0.090693 0.008236 0
-0.094299 0.000852 0
-0.096793 -0.006182 0
-0.098175 -0.012704 0
-0.098466 -0.018587 0
-0.097705 -0.023737 0
-0.095945 -0.028084 0
-0.093254 -0.031584 0
-0.089717 -0.034215 0
-0.085431 -0.035979 0
-0.080503 -0.036896 0
-0.075050 -0.037008 0
-0.069196 -0.036373 0
-0.063065 -0.035064 0
-0.056780 -0.033168 0
-0.050462 -0.030775 0
-0.044221 -0.027982 0
-0.038158 -0.024885 0
-0.032362 -0.021578 0
-0.026906 -0.018147 0
-0.021852 -0.014671 0
-0.017246 -0.011218 0
-0.013119 -0.007847 0
-0.009491 -0.004607 0
-0.006370 -0.001539 0
-0.003756 0.001319 0
-0.001644 0.003930 0
-0.000015 0.006258 0
0.001157 0.008264 0
0.001903 0.009894 0
0.002259 0.011074 0
0.002268 0.011698 0
0.001983 0.011628 0
0.001480 0.010678 0
0.000865 0.008620 0
0.000296 0.005171 0
0.000000 0.000000 0
0.000000 0.000000 0
-0.001268 0.013983 0
-0.004702 0.026421 0
-0.009958 0.037005 0
-0.016703 0.045413 0
-0.024601 0.051380 0
-0.033318 0.054759 0
-0.042525 0.055552 0
-0.051909 0.053914 0
-0.061185 0.050133 0
-0.070105 0.044584 0
-0.078458 0.037686 0
-0.086073 0.029859 0
-0.092819 0.021492 0
-0.098595 0.012926 0
-0.103327 0.004452 0
-0.106970 -0.003695 0
-0.109502 -0.011328 0
-0.110921 -0.018305 0
-0.111240 -0.024514 0
-0.110490 -0.029871 0
-0.108715 -0.034315 0
-0.105976 -0.037810 0
-0.102351 -0.040341 0
-0.097932 -0.041920 0
-0.092825 -0.042576 0
-0.087144 -0.042364 0
-0.081013 -0.041352 0
-0.074558 -0.039627 0
-0.067905 -0.037286 0
-0.061177 -0.034431 0
-0.054487 -0.031171 0
-0.047941 -0.027611 0
-0.041631 -0.023850 0
-0.035634 -0.019982 0
-0.030016 -0.016090 0
-0.024825 -0.012246 0
-0.020099 -0.008511 0
-0.015860 -0.004939 0
-0.012122 -0.001573 0
-0.008891 0.001543 0
-0.006169 0.004361 0
-0.003945 0.006833 0
-0.002201 0.008901 0
-0.000912 0.010485 0
-0.000053 0.011472 0
0.000417 0.011708 0
0.000549 0.010985 0
0.000426 0.009030 0
0.000178 0.005506 0
0.000000 0.000000 0
0.000000 -0.000000 0
-0.001291 0.016366 0
-0.004804 0.030833 0
-0.010202 0.043109 0
-0.017154 0.052874 0
-0.025330 0.059865 0
-0.034399 0.063938 0
-0.044039 0.065106 0
-0.053945 0.063548 0
-0.063840 0.059582 0
-0.073478 0.053619 0
-0.082653 0.046118 0
-0.091193 0.037532 0
-0.098959 0.028284 0
-0.105839 0.018745 0
-0.111746 0.009227 0
-0.116611 -0.000007 0
-0.120387 -0.008752 0
-0.123048 -0.016849 0
-0.124583 -0.024168 0
-0.124995 -0.030610 0
-0.124302 -0.036098 0
-0.122542 -0.040579 0
-0.119765 -0.044022 0
-0.116045 -0.046422 0
-0.111468 -0.047796 0
-0.106138 -0.048185 0
-0.100172 -0.047650 0
-0.093694 -0.046275 0
-0.086832 -0.044156 0
-0.079718 -0.041399 0
-0.072478 -0.038121 0
-0.065231 -0.034435 0
-0.058087 -0.030454 0
-0.051142 -0.026286 0
-0.044480 -0.022027 0
-0.038170 -0.017764 0
-0.032269 -0.013572 0
-0.026817 -0.009516 0
-0.021844 -0.005650 0
-0.017372 -0.002023 0
-0.013414 0.001312 0
-0.009984 0.004296 0
-0.007084 0.006862 0
-0.004708 0.008925 0
-0.002845 0.010369 0
-0.001480 0.011027 0
-0.000586 0.010669 0
-0.000112 0.008990 0
0.000032 0.005597 0
0.000000 -0.000000 0
0.000000 -0.000000 0
-0.001301 0.018787 0
-0.004858 0.035332 0
-0.010343 0.049355 0
-0.017435 0.060540 0
-0.025810 0.068624 0
-0.035148 0.073468 0
-0.045137 0.075098 0
-0.055483 0.073715 0
-0.065918 0.069666 0
-0.076205 0.063398 0
-0.086143 0.055401 0
-0.095561 0.046165 0
-0.104317 0.036137 0
-0.112293 0.025713 0
-0.119386 0.015224 0
-0.125510 0.004947 0
-0.130591 -0.004891 0
-0.134578 -0.014110 0
-0.137432 -0.022568 0
-0.139132 -0.030151 0
-0.139667 -0.036768 0
-0.139044 -0.042347 0
-0.137290 -0.046838 0
-0.134449 -0.050217 0
-0.130587 -0.052483 0
-0.125791 -0.053660 0
-0.120164 -0.053797 0
-0.113824 -0.052967 0
-0.106899 -0.051261 0
-0.099522 -0.048786 0
-0.091831 -0.045659 0
-0.083957 -0.042002 0
-0.076026 -0.037939 0
-0.068153 -0.033589 0
-0.060443 -0.029061 0
-0.052984 -0.024457 0
-0.045854 -0.019865 0
-0.039114 -0.015363 0
-0.032816 -0.011018 0
-0.026998 -0.006887 0
-0.021691 -0.003027 0
-0.016923 0.000503 0
-0.012721 0.003625 0
-0.009108 0.006245 0
-0.006098 0.008245 0
-0.003701 0.009449 0
-0.001922 0.009616 0
-0.000750 0.008412 0
-0.000142 0.005394 0
0.000000 -0.000000 0
0.000000 -0.000000 0
-0.001300 0.021224 0
-0.004869 0.039876 0
-0.010393 0.055686 0
-0.017561 0.068340 0
-0.026061 0.077577 0
-0.035585 0.083264 0
-0.045836 0.085441 0
-0.056532 0.084330 0
-0.067419 0.080305 0
-0.078270 0.073845 0
-0.088892 0.065474 0
-0.099117 0.055706 0
-0.108806 0.045016 0
-0.117833 0.033813 0
-0.126088 0.022444 0
-0.133468 0.011198 0
-0.139882 0.000315 0
-0.145244 -0.010007 0
-0.149490 -0.019613 0
-0.152572 -0.028375 0
-0.154451 -0.036185 0
-0.155104 -0.042956 0
-0.154526 -0.048618 0
-0.152734 -0.053125 0
-0.149767 -0.056453 0
-0.145687 -0.058608 0
-0.140580 -0.059618 0
-0.134551 -0.059541 0
-0.127722 -0.058457 0
-0.120227 -0.056467 0
-0.112207 -0.053686 0
-0.103804 -0.050240 0
-0.095160 -0.046258 0
-0.086407 -0.041869 0
-0.077669 -0.037196 0
-0.069057 -0.032353 0
-0.060671 -0.027442 0
-0.052594 -0.022554 0
-0.044900 -0.017766 0
-0.037650 -0.013148 0
-0.030897 -0.008762 0
-0.024687 -0.004673 0
-0.019067 -0.000953 0
-0.014085 0.002302 0
-0.009792 0.004962 0
-0.006234 0.006850 0
-0.003453 0.007718 0
-0.001485 0.007210 0
-0.000345 0.004847 0
0.000000 -0.000000 0
0.000000 -0.000000 0
-0.001289 0.023656 0
-0.004843 0.044426 0
-0.010362 0.062047 0
-0.017548 0.076207 0
-0.026102 0.086648 0
-0.035733 0.093243 0
-0.046158 0.096046 0
-0.057111 0.095298 0
-0.068353 0.091404 0
-0.079670 0.084870 0
-0.090878 0.076248 0
-0.101819 0.066079 0
-0.112354 0.054853 0
-0.122359 0.042995 0
-0.131717 0.030860 0
-0.140315 0.018741 0
-0.148044 0.006885 0
-0.154794 -0.004501 0
-0.160469 -0.015240 0
-0.164993 -0.025191 0
-0.168301 -0.034236 0
-0.170339 -0.042272 0
-0.171071 -0.049208 0
-0.170480 -0.054976 0
-0.168575 -0.059530 0
-0.165390 -0.062846 0
-0.160986 -0.064933 0
-0.155450 -0.065825 0
-0.148890 -0.065585 0
-0.141437 -0.064301 0
-0.133230 -0.062081 0
-0.124421 -0.059049 0
-0.115162 -0.055337 0
-0.105602 -0.051080 0
-0.095885 -0.046410 0
-0.086143 -0.041455 0
-0.076500 -0.036329 0
-0.067063 -0.031134 0
-0.057929 -0.025962 0
-0.049184 -0.020890 0
-0.040905 -0.015989 0
-0.033165 -0.011327 0
-0.026034 -0.006977 0
-0.019583 -0.003029 0
-0.013896 0.000393 0
-0.009060 0.003111 0
-0.005169 0.004868 0
-0.002314 0.005304 0
-0.000575 0.003909 0
0.000000 -0.000000 0
0.000000 -0.000000 0
-0.001270 0.026068 0
-0.004786 0.048949 0
-0.010261 0.068390 0
-0.017412 0.084080 0
-0.025956 0.095763 0
-0.035617 0.103320 0
-0.046129 0.106819 0
-0.057244 0.106524 0
-0.068739 0.102863 0
-0.080414 0.096370 0
-0.092098 0.087623 0
-0.103643 0.077182 0
-0.114917 0.065556 0
-0.125796 0.053176 0
-0.136165 0.040401 0
-0.145903 0.027525 0
-0.154889 0.014794 0
-0.162997 0.002418 0
-0.170104 -0.009414 0
-0.176096 -0.020543 0
-0.180883 -0.030840 0
-0.184383 -0.040186 0
-0.186529 -0.048477 0
-0.187269 -0.055620 0
-0.186577 -0.061544 0
-0.184455 -0.066197 0
-0.180933 -0.069558 0
-0.176073 -0.071637 0
-0.169966 -0.072470 0
-0.162729 -0.072127 0
-0.154497 -0.070701 0
-0.145425 -0.068308 0
-0.135673 -0.065077 0
-0.125404 -0.061146 0
-0.114782 -0.056655 0
-0.103961 -0.051738 0
-0.093086 -0.046523 0
-0.082291 -0.041125 0
-0.071700 -0.035645 0
-0.061424 -0.030171 0
-0.051568 -0.024781 0
-0.042230 -0.019545 0
-0.033510 -0.014535 0
-0.025511 -0.009836 0
-0.018347 -0.005561 0
-0.012145 -0.001877 0
-0.007053 0.000971 0
-0.003228 0.002616 0
-0.000830 0.002533 0
0.000000 -0.000000 0
0.000000 0.000000 0
-0.001245 0.028443 0
-0.004702 0.053417 0
-0.010101 0.074672 0
-0.017171 0.091902 0
-0.025645 0.104854 0
-0.035264 0.113416 0
-0.045780 0.117673 0
-0.056962 0.117908 0
-0.068605 0.114573 0
-0.080525 0.108230 0
-0.092566 0.099478 0
-0.104590 0.088897 0
-0.116474 0.077006 0
-0.128102 0.064243 0
-0.139359 0.050966 0
-0.150126 0.037465 0
-0.160273 0.023979 0
-0.169666 0.010714 0
-0.178160 -0.002141 0
-0.185608 -0.014412 0
-0.191887 -0.025949 0
-0.196891 -0.036626 0
-0.200521 -0.046322 0
-0.202692 -0.054928 0
-0.203342 -0.062344 0
-0.202435 -0.068490 0
-0.199966 -0.073314 0
-0.195965 -0.076791 0
-0.190498 -0.078929 0
-0.183661 -0.079770 0
-0.175582 -0.079385 0
-0.166408 -0.077874 0
-0.156307 -0.075358 0
-0.145453 -0.071970 0
-0.134025 -0.067854 0
-0.122199 -0.063151 0
-0.110146 -0.057998 0
-0.098025 -0.052520 0
-0.085986 -0.046829 0
-0.074170 -0.041023 0
-0.062710 -0.035184 0
-0.051735 -0.029385 0
-0.041375 -0.023696 0
-0.031766 -0.018192 0
-0.023060 -0.012973 0
-0.015429 -0.008183 0
-0.009072 -0.004049 0
-0.004215 -0.000919 0
-0.001108 0.000681 0
0.000000 -0.000000 0
0.000000 0.000000 0
-0.001215 0.030770 0
-0.004598 0.057805 0
-0.009892 0.080858 0
-0.016841 0.099625 0
-0.025193 0.113857 0
-0.034704 0.123455 0
-0.045144 0.128517 0
-0.056302 0.129349 0
-0.067988 0.126426 0
-0.080038 0.120331 0
-0.092309 0.111687 0
-0.104677 0.101090 0
-0.117029 0.089067 0
-0.129260 0.076061 0
-0.141260 0.062425 0
-0.152913 0.048440 0
-0.164091 0.034334 0
-0.174652 0.020304 0
-0.184440 0.006528 0
-0.193291 -0.006816 0
-0.201038 -0.019556 0
-0.207548 -0.031552 0
-0.212696 -0.042676 0
-0.216365 -0.052799 0
-0.218456 -0.061801 0
-0.218892 -0.069573 0
-0.217631 -0.076028 0
-0.214664 -0.081104 0
-0.210024 -0.084774 0
-0.203782 -0.087043 0
-0.196043 -0.087954 0
-0.186949 -0.087583 0
-0.176664 -0.086033 0
-0.165370 -0.083428 0
-0.153261 -0.079908 0
-0.140532 -0.075617 0
-0.127378 -0.070698 0
-0.113987 -0.065285 0
-0.100538 -0.059499 0
-0.087201 -0.053447 0
-0.074141 -0.047216 0
-0.061517 -0.040880 0
-0.049493 -0.034504 0
-0.038242 -0.028150 0
-0.027954 -0.021898 0
-0.018849 -0.015865 0
-0.011183 -0.010243 0
-0.005254 -0.005347 0
-0.001404 -0.001682 0
0.000000 -0.000000 0
0.000000 0.000000 0
-0.001181 0.033041 0
-0.004477 0.062093 0
-0.009644 0.086915 0
-0.016438 0.107204 0
-0.024622 0.122717 0
-0.033967 0.133368 0
-0.044259 0.139270 0
-0.055304 0.140752 0
-0.066933 0.138310 0
-0.078997 0.132551 0
-0.091370 0.124117 0
-0.103941 0.113617 0
-0.116611 0.101589 0
-0.129284 0.088474 0
-0.141862 0.074620 0
-0.154236 0.060297 0
-0.166281 0.045718 0
-0.177858 0.031063 0
-0.188805 0.016497 0
-0.198951 0.002186 0
-0.208104 -0.011691 0