# vtk DataFile Version 2.0
generated by CFD-lab course output (written by Tobias Neckel) 
ASCII

DATASET STRUCTURED_GRID
DIMENSIONS  51 51 1 
POINTS 2601 float

0.000000 0.000000 0
0.020000 0.000000 0
0.040000 0.000000 0
0.060000 0.000000 0
0.080000 0.000000 0
0.100000 0.000000 0
0.120000 0.000000 0
0.140000 0.000000 0
0.160000 0.000000 0
0.180000 0.000000 0
0.200000 0.000000 0
0.220000 0.000000 0
0.240000 0.000000 0
0.260000 0.000000 0
0.280000 0.000000 0
0.300000 0.000000 0
0.320000 0.000000 0
0.340000 0.000000 0
0.360000 0.000000 0
0.380000 0.000000 0
0.400000 0.000000 0
0.420000 0.000000 0
0.440000 0.000000 0
0.460000 0.000000 0
0.480000 0.000000 0
0.500000 0.000000 0
0.520000 0.000000 0
0.540000 0.000000 0
0.560000 0.000000 0
0.580000 0.000000 0
0.600000 0.000000 0
0.620000 0.000000 0
0.640000 0.000000 0
0.660000 0.000000 0
0.680000 0.000000 0
0.700000 0.000000 0
0.720000 0.000000 0
0.740000 0.000000 0
0.760000 0.000000 0
0.780000 0.000000 0
0.800000 0.000000 0
0.820000 0.000000 0
0.840000 0.000000 0
0.860000 0.000000 0
0.880000 0.000000 0
0.900000 0.000000 0
0.920000 0.000000 0
0.940000 0.000000 0
0.960000 0.000000 0
0.980000 0.000000 0
1.000000 0.000000 0
0.000000 0.020000 0
0.020000 0.020000 0
0.040000 0.020000 0
0.060000 0.020000 0
0.080000 0.020000 0
0.100000 0.020000 0
0.120000 0.020000 0
0.140000 0.020000 0
0.160000 0.020000 0
0.180000 0.020000 0
0.200000 0.020000 0
0.220000 0.020000 0
0.240000 0.020000 0
0.260000 0.020000 0
0.280000 0.020000 0
0.300000 0.020000 0
0.320000 0.020000 0
0.340000 0.020000 0
0.360000 0.020000 0
0.380000 0.020000 0
0.400000 0.020000 0
0.420000 0.020000 0
0.440000 0.020000 0
0.460000 0.020000 0
0.480000 0.020000 0
0.500000 0.020000 0
0.520000 0.020000 0
0.540000 0.020000 0
0.560000 0.020000 0
0.580000 0.020000 0
0.600000 0.020000 0
0.620000 0.020000 0
0.640000 0.020000 0
0.660000 0.020000 0
0.680000 0.020000 0
0.700000 0.020000 0
0.720000 0.020000 0
0.740000 0.020000 0
0.760000 0.020000 0
0.780000 0.020000 0
0.800000 0.020000 0
0.820000 0.020000 0
0.840000 0.020000 0
0.860000 0.020000 0
0.880000 0.020000 0
0.900000 0.020000 0
0.920000 0.020000 0
0.940000 0.020000 0
0.960000 0.020000 0
0.980000 0.020000 0
1.000000 0.020000 0
0.000000 0.040000 0
0.020000 0.040000 0
0.040000 0.040000 0
0.060000 0.040000 0
0.080000 0.040000 0
0.100000 0.040000 0
0.120000 0.040000 0
0.140000 0.040000 0
0.160000 0.040000 0
0.180000 0.040000 0
0.200000 0.040000 0
0.220000 0.040000 0
0.240000 0.040000 0
0.260000 0.040000 0
0.280000 0.040000 0
0.300000 0.040000 0
0.320000 0.040000 0
0.340000 0.040000 0
0.360000 0.040000 0
0.380000 0.040000 0
0.400000 0.040000 0
0.420000 0.040000 0
0.440000 0.040000 0
0.460000 0.040000 0
0.480000 0.040000 0
0.500000 0.040000 0
0.520000 0.040000 0
0.540000 0.040000 0
0.560000 0.040000 0
0.580000 0.040000 0
0.600000 0.040000 0
0.620000 0.040000 0
0.640000 0.040000 0
0.660000 0.040000 0
0.680000 0.040000 0
0.700000 0.040000 0
0.720000 0.040000 0
0.740000 0.040000 0
0.760000 0.040000 0
0.780000 0.040000 0
0.800000 0.040000 0
0.820000 0.040000 0
0.840000 0.040000 0
0.860000 0.040000 0
0.880000 0.040000 0
0.900000 0.040000 0
0.920000 0.040000 0
0.940000 0.040000 0
0.960000 0.040000 0
0.980000 0.040000 0
1.000000 0.040000 0
0.000000 0.060000 0
0.020000 0.060000 0
0.040000 0.060000 0
0.060000 0.060000 0
0.080000 0.060000 0
0.100000 0.060000 0
0.120000 0.060000 0
0.140000 0.060000 0
0.160000 0.060000 0
0.180000 0.060000 0
0.200000 0.060000 0
0.220000 0.060000 0
0.240000 0.060000 0
0.260000 0.060000 0
0.280000 0.060000 0
0.300000 0.060000 0
0.320000 0.060000 0
0.340000 0.060000 0
0.360000 0.060000 0
0.380000 0.060000 0
0.400000 0.060000 0
0.420000 0.060000 0
0.440000 0.060000 0
0.460000 0.060000 0
0.480000 0.060000 0
0.500000 0.060000 0
0.520000 0.060000 0
0.540000 0.060000 0
0.560000 0.060000 0
0.580000 0.060000 0
0.600000 0.060000 0
0.620000 0.060000 0
0.640000 0.060000 0
0.660000 0.060000 0
0.680000 0.060000 0
0.700000 0.060000 0
0.720000 0.060000 0
0.740000 0.060000 0
0.760000 0.060000 0
0.780000 0.060000 0
0.800000 0.060000 0
0.820000 0.060000 0
0.840000 0.060000 0
0.860000 0.060000 0
0.880000 0.060000 0
0.900000 0.060000 0
0.920000 0.060000 0
0.940000 0.060000 0
0.960000 0.060000 0
0.980000 0.060000 0
1.000000 0.060000 0
0.000000 0.080000 0
0.020000 0.080000 0
0.040000 0.080000 0
0.060000 0.080000 0
0.080000 0.080000 0
0.100000 0.080000 0
0.120000 0.080000 0
0.140000 0.080000 0
0.160000 0.080000 0
0.180000 0.080000 0
0.200000 0.080000 0
0.220000 0.080000 0
0.240000 0.080000 0
0.260000 0.080000 0
0.280000 0.080000 0
0.300000 0.080000 0
0.320000 0.080000 0
0.340000 0.080000 0
0.360000 0.080000 0
0.380000 0.080000 0
0.400000 0.080000 0
0.420000 0.080000 0
0.440000 0.080000 0
0.460000 0.080000 0
0.480000 0.080000 0
0.500000 0.080000 0
0.520000 0.080000 0
0.540000 0.080000 0
0.560000 0.080000 0
0.580000 0.080000 0
0.600000 0.080000 0
0.620000 0.080000 0
0.640000 0.080000 0
0.660000 0.080000 0
0.680000 0.080000 0
0.700000 0.080000 0
0.720000 0.080000 0
0.740000 0.080000 0
0.760000 0.080000 0
0.780000 0.080000 0
0.800000 0.080000 0
0.820000 0.080000 0
0.840000 0.080000 0
0.860000 0.080000 0
0.880000 0.080000 0
0.900000 0.080000 0
0.920000 0.080000 0
0.940000 0.080000 0
0.960000 0.080000 0
0.980000 0.080000 0
1.000000 0.080000 0
0.000000 0.100000 0
0.020000 0.100000 0
0.040000 0.100000 0
0.060000 0.100000 0
0.080000 0.100000 0
0.100000 0.100000 0
0.120000 0.100000 0
0.140000 0.100000 0
0.160000 0.100000 0
0.180000 0.100000 0
0.200000 0.100000 0
0.220000 0.100000 0
0.240000 0.100000 0
0.260000 0.100000 0
0.280000 0.100000 0
0.300000 0.100000 0
0.320000 0.100000 0
0.340000 0.100000 0
0.360000 0.100000 0
0.380000 0.100000 0
0.400000 0.100000 0
0.420000 0.100000 0
0.440000 0.100000 0
0.460000 0.100000 0
0.480000 0.100000 0
0.500000 0.100000 0
0.520000 0.100000 0
0.540000 0.100000 0
0.560000 0.100000 0
0.580000 0.100000 0
0.600000 0.100000 0
0.620000 0.100000 0
0.640000 0.100000 0
0.660000 0.100000 0
0.680000 0.100000 0
0.700000 0.100000 0
0.720000 0.100000 0
0.740000 0.100000 0
0.760000 0.100000 0
0.780000 0.100000 0
0.800000 0.100000 0
0.820000 0.100000 0
0.840000 0.100000 0
0.860000 0.100000 0
0.880000 0.100000 0
0.900000 0.100000 0
0.920000 0.100000 0
0.940000 0.100000 0
0.960000 0.100000 0
0.980000 0.100000 0
1.000000 0.100000 0
0.000000 0.120000 0
0.020000 0.120000 0
0.040000 0.120000 0
0.060000 0.120000 0
0.080000 0.120000 0
0.100000 0.120000 0
0.120000 0.120000 0
0.140000 0.120000 0
0.160000 0.120000 0
0.180000 0.120000 0
0.200000 0.120000 0
0.220000 0.120000 0
0.240000 0.120000 0
0.260000 0.120000 0
0.280000 0.120000 0
0.300000 0.120000 0
0.320000 0.120000 0
0.340000 0.120000 0
0.360000 0.120000 0
0.380000 0.120000 0
0.400000 0.120000 0
0.420000 0.120000 0
0.440000 0.120000 0
0.460000 0.120000 0
0.480000 0.120000 0
0.500000 0.120000 0
0.520000 0.120000 0
0.540000 0.120000 0
0.560000 0.120000 0
0.580000 0.120000 0
0.600000 0.120000 0
0.620000 0.120000 0
0.640000 0.120000 0
0.660000 0.120000 0
0.680000 0.120000 0
0.700000 0.120000 0
0.720000 0.120000 0
0.740000 0.120000 0
0.760000 0.120000 0
0.780000 0.120000 0
0.800000 0.120000 0
0.820000 0.120000 0
0.840000 0.120000 0
0.860000 0.120000 0
0.880000 0.120000 0
0.900000 0.120000 0
0.920000 0.120000 0
0.940000 0.120000 0
0.960000 0.120000 0
0.980000 0.120000 0
1.000000 0.120000 0
0.000000 0.140000 0
0.020000 0.140000 0
0.040000 0.140000 0
0.060000 0.140000 0
0.080000 0.140000 0
0.100000 0.140000 0
0.120000 0.140000 0
0.140000 0.140000 0
0.160000 0.140000 0
0.180000 0.140000 0
0.200000 0.140000 0
0.220000 0.140000 0
0.240000 0.140000 0
0.260000 0.140000 0
0.280000 0.140000 0
0.300000 0.140000 0
0.320000 0.140000 0
0.340000 0.140000 0
0.360000 0.140000 0
0.380000 0.140000 0
0.400000 0.140000 0
0.420000 0.140000 0
0.440000 0.140000 0
0.460000 0.140000 0
0.480000 0.140000 0
0.500000 0.140000 0
0.520000 0.140000 0
0.540000 0.140000 0
0.560000 0.140000 0
0.580000 0.140000 0
0.600000 0.140000 0
0.620000 0.140000 0
0.640000 0.140000 0
0.660000 0.140000 0
0.680000 0.140000 0
0.700000 0.140000 0
0.720000 0.140000 0
0.740000 0.140000 0
0.760000 0.140000 0
0.780000 0.140000 0
0.800000 0.140000 0
0.820000 0.140000 0
0.840000 0.140000 0
0.860000 0.140000 0
0.880000 0.140000 0
0.900000 0.140000 0
0.920000 0.140000 0
0.940000 0.140000 0
0.960000 0.140000 0
0.980000 0.140000 0
1.000000 0.140000 0
0.000000 0.160000 0
0.020000 0.160000 0
0.040000 0.160000 0
0.060000 0.160000 0
0.080000 0.160000 0
0.100000 0.160000 0
0.120000 0.160000 0
0.140000 0.160000 0
0.160000 0.160000 0
0.180000 0.160000 0
0.200000 0.160000 0
0.220000 0.160000 0
0.240000 0.160000 0
0.260000 0.160000 0
0.280000 0.160000 0
0.300000 0.160000 0
0.320000 0.160000 0
0.340000 0.160000 0
0.360000 0.160000 0
0.380000 0.160000 0
0.400000 0.160000 0
0.420000 0.160000 0
0.440000 0.160000 0
0.460000 0.160000 0
0.480000 0.160000 0
0.500000 0.160000 0
0.520000 0.160000 0
0.540000 0.160000 0
0.560000 0.160000 0
0.580000 0.160000 0
0.600000 0.160000 0
0.620000 0.160000 0
0.640000 0.160000 0
0.660000 0.160000 0
0.680000 0.160000 0
0.700000 0.160000 0
0.720000 0.160000 0
0.740000 0.160000 0
0.760000 0.160000 0
0.780000 0.160000 0
0.800000 0.160000 0
0.820000 0.160000 0
0.840000 0.160000 0
0.860000 0.160000 0
0.880000 0.160000 0
0.900000 0.160000 0
0.920000 0.160000 0
0.940000 0.160000 0
0.960000 0.160000 0
0.980000 0.160000 0
1.000000 0.160000 0
0.000000 0.180000 0
0.020000 0.180000 0
0.040000 0.180000 0
0.060000 0.180000 0
0.080000 0.180000 0
0.100000 0.180000 0
0.120000 0.180000 0
0.140000 0.180000 0
0.160000 0.180000 0
0.180000 0.180000 0
0.200000 0.180000 0
0.220000 0.180000 0
0.240000 0.180000 0
0.260000 0.180000 0
0.280000 0.180000 0
0.300000 0.180000 0
0.320000 0.180000 0
0.340000 0.180000 0
0.360000 0.180000 0
0.380000 0.180000 0
0.400000 0.180000 0
0.420000 0.180000 0
0.440000 0.180000 0
0.460000 0.180000 0
0.480000 0.180000 0
0.500000 0.180000 0
0.520000 0.180000 0
0.540000 0.180000 0
0.560000 0.180000 0
0.580000 0.180000 0
0.600000 0.180000 0
0.620000 0.180000 0
[...]
POINT_DATA 2601 

VECTORS velocity float
0.000000 0.000000 0
-0.000000 0.000000 0
-0.000001 0.000000 0
-0.000000 0.000000 0
0.000000 0.000000 0
0.000000 0.000000 0
0.000000 0.000000 0
0.000000 0.000000 0
-0.000000 0.000000 0
-0.000000 0.000000 0
-0.000000 0.000000 0
-0.000000 0.000000 0
0.000000 0.000000 0
0.000000 0.000000 0
0.000000 0.000000 0
0.000000 0.000000 0
0.000000 0.000000 0
-0.000000 0.000000 0
-0.000000 0.000000 0
-0.000000 0.000000 0
-0.000000 0.000000 0
-0.000000 0.000000 0
-0.000000 0.000000 0
-0.000000 0.000000 0
0.000000 0.000000 0
0.000000 0.000000 0
0.000000 0.000000 0
0.000000 0.000000 0
0.000000 0.000000 0
-0.000000 0.000000 0
-0.000000 0.000000 0
-0.000000 0.000000 0
-0.000000 0.000000 0
-0.000000 0.000000 0
-0.000000 0.000000 0
0.000000 0.000000 0
0.000000 0.000000 0
0.000000 0.000000 0
0.000000 0.000000 0
0.000000 0.000000 0
0.000000 0.000000 0
-0.000000 0.000000 0
-0.000000 0.000000 0
-0.000000 0.000000 0
-0.000000 0.000000 0
-0.000000 0.000000 0
-0.000000 0.000000 0
0.000000 0.000000 0
0.000000 0.000000 0
0.000000 0.000000 0
0.000000 0.000000 0
0.000000 -0.000000 0
-0.000007 0.000010 0
-0.000357 0.000247 0
-0.001135 0.000513 0
-0.002302 0.000733 0
-0.003768 0.000882 0
-0.005414 0.000953 0
-0.007116 0.000948 0
-0.008753 0.000875 0
-0.010223 0.000747 0
-0.011442 0.000578 0
-0.012351 0.000383 0
-0.012914 0.000176 0
-0.013120 -0.000030 0
-0.012973 -0.000227 0
-0.012494 -0.000406 0
-0.011713 -0.000562 0
-0.010671 -0.000692 0
-0.009413 -0.000794 0
-0.007986 -0.000867 0
-0.006439 -0.000912 0
-0.004820 -0.000931 0
-0.003174 -0.000925 0
-0.001542 -0.000897 0
0.000037 -0.000849 0
0.001531 -0.000786 0
0.002911 -0.000710 0
0.004157 -0.000624 0
0.005253 -0.000533 0
0.006188 -0.000438 0
0.006955 -0.000342 0
0.007554 -0.000247 0
0.007985 -0.000154 0
0.008253 -0.000066 0
0.008367 0.000017 0
0.008333 0.000095 0
0.008162 0.000167 0
0.007865 0.000232 0
0.007452 0.000292 0
0.006935 0.000346 0
0.006324 0.000393 0
0.005631 0.000434 0
0.004872 0.000466 0
0.004064 0.000488 0
0.003230 0.000494 0
0.002399 0.000479 0
0.001613 0.000435 0
0.000923 0.000352 0
0.000390 0.000226 0
0.000074 0.000074 0
0.000000 -0.000000 0
0.000000 -0.000001 0
-0.000230 0.000356 0
-0.001098 0.001128 0
-0.002648 0.001946 0
-0.004813 0.002635 0
-0.007452 0.003112 0
-0.010383 0.003347 0
-0.013408 0.003339 0
-0.016333 0.003107 0
-0.018987 0.002688 0
-0.021227 0.002127 0
-0.022951 0.001472 0
-0.024094 0.000770 0
-0.024625 0.000059 0
-0.024546 -0.000626 0
-0.023885 -0.001260 0
-0.022687 -0.001822 0
-0.021015 -0.002300 0
-0.018940 -0.002685 0
-0.016541 -0.002974 0
-0.013899 -0.003166 0
-0.011097 -0.003266 0
-0.008213 -0.003278 0
-0.005321 -0.003211 0
-0.002489 -0.003073 0
0.000222 -0.002874 0
0.002760 -0.002627 0
0.005082 -0.002342 0
0.007156 -0.002030 0
0.008957 -0.001702 0
0.010471 -0.001366 0
0.011691 -0.001030 0
0.012616 -0.000700 0
0.013252 -0.000382 0
0.013608 -0.000079 0
0.013697 0.000204 0
0.013537 0.000468 0
0.013144 0.000710 0
0.012538 0.000931 0
0.011738 0.001129 0
0.010766 0.001303 0
0.009645 0.001451 0
0.008401 0.001567 0
0.007066 0.001643 0
0.005681 0.001665 0
0.004296 0.001616 0
0.002976 0.001476 0
0.001798 0.001223 0
0.000852 0.000849 0
0.000228 0.000390 0
0.000000 0.000000 0
0.000000 -0.000000 0
-0.000477 0.001108 0
-0.001882 0.002667 0
-0.004168 0.004228 0
-0.007219 0.005537 0
-0.010856 0.006451 0
-0.014856 0.006908 0
-0.018976 0.006898 0
-0.022977 0.006454 0
-0.026644 0.005642 0
-0.029795 0.004543 0
-0.032295 0.003250 0
-0.034053 0.001850 0
-0.035022 0.000423 0
-0.035197 -0.000966 0
-0.034602 -0.002265 0
-0.033289 -0.003432 0
-0.031328 -0.004440 0
-0.028805 -0.005268 0
-0.025817 -0.005907 0
-0.022464 -0.006356 0
-0.018850 -0.006617 0
-0.015079 -0.006701 0
-0.011247 -0.006620 0
-0.007446 -0.006392 0
-0.003759 -0.006035 0
-0.000259 -0.005570 0
0.002992 -0.005020 0
0.005942 -0.004407 0
0.008553 -0.003753 0
0.010800 -0.003076 0
0.012666 -0.002392 0
0.014146 -0.001715 0
0.015242 -0.001058 0
0.015963 -0.000428 0
0.016323 0.000166 0
0.016341 0.000720 0
0.016038 0.001231 0
0.015441 0.001698 0
0.014576 0.002117 0
0.013471 0.002487 0
0.012157 0.002799 0
0.010671 0.003044 0
0.009053 0.003207 0
0.007355 0.003264 0
0.005640 0.003184 0
0.003983 0.002933 0
0.002477 0.002476 0
0.001228 0.001796 0
0.000356 0.000926 0
0.000000 0.000000 0
0.000000 -0.000000 0
-0.000690 0.002239 0
-0.002584 0.004820 0
-0.005538 0.007283 0
-0.009381 0.009322 0
-0.013894 0.010748 0
-0.018823 0.011467 0
-0.023898 0.011461 0
-0.028850 0.010776 0
-0.033434 0.009507 0
-0.037442 0.007779 0
-0.040715 0.005730 0
-0.043142 0.003497 0
-0.044661 0.001203 0
-0.045256 -0.001046 0
-0.044944 -0.003168 0
-0.043774 -0.005097 0
-0.041818 -0.006784 0
-0.039164 -0.008196 0
-0.035915 -0.009315 0
-0.032182 -0.010132 0
-0.028081 -0.010651 0
-0.023729 -0.010882 0
-0.019238 -0.010843 0
-0.014719 -0.010560 0
-0.010272 -0.010061 0
-0.005987 -0.009378 0
-0.001942 -0.008543 0
0.001795 -0.007591 0
0.005169 -0.006560 0
0.008139 -0.005479 0
0.010679 -0.004376 0
0.012775 -0.003276 0
0.014422 -0.002199 0
0.015624 -0.001160 0
0.016394 -0.000173 0
0.016750 0.000752 0
0.016715 0.001609 0
0.016317 0.002393 0
0.015587 0.003099 0
0.014558 0.003722 0
0.013266 0.004251 0
0.011755 0.004671 0
0.010069 0.004958 0
0.008266 0.005078 0
0.006414 0.004989 0
0.004595 0.004639 0
0.002907 0.003978 0
0.001472 0.002970 0
0.000439 0.001618 0
0.000000 0.000000 0
0.000000 0.000000 0
-0.000861 0.003693 0
-0.003172 0.007515 0
-0.006712 0.011024 0
-0.011253 0.013891 0
-0.016544 0.015894 0
-0.022304 0.016913 0
-0.028240 0.016925 0
-0.034063 0.015990 0
-0.039510 0.014233 0
-0.044355 0.011824 0
-0.048422 0.008949 0
-0.051583 0.005796 0
-0.053762 0.002537 0
-0.054929 -0.000684 0
-0.055094 -0.003746 0
-0.054297 -0.006559 0
-0.052601 -0.009050 0
-0.050093 -0.011171 0
-0.046873 -0.012889 0
-0.043053 -0.014190 0
-0.038753 -0.015071 0
-0.034094 -0.015544 0
-0.029199 -0.015629 0
-0.024189 -0.015358 0
-0.019177 -0.014768 0
-0.014268 -0.013900 0
-0.009556 -0.012801 0
-0.005121 -0.011518 0
-0.001033 -0.010097 0
0.002652 -0.008586 0
0.005893 -0.007028 0
0.008662 -0.005458 0
0.010946 -0.003907 0
0.012742 -0.002401 0
0.014057 -0.000960 0
0.014903 0.000400 0
0.015303 0.001665 0
0.015284 0.002826 0
0.014878 0.003877 0
0.014121 0.004807 0
0.013052 0.005602 0
0.011714 0.006242 0
0.010158 0.006695 0
0.008440 0.006919 0
0.006629 0.006856 0
0.004809 0.006440 0
0.003084 0.005598 0
0.001583 0.004265 0
0.000478 0.002398 0
0.000000 0.000000 0
0.000000 0.000000 0
-0.000995 0.005412 0
-0.003650 0.010670 0
-0.007687 0.015363 0
-0.012838 0.019154 0
-0.018817 0.021799 0
-0.025324 0.023163 0
-0.032048 0.023220 0
-0.038688 0.022046 0
-0.044966 0.019799 0
-0.050645 0.016690 0
-0.055536 0.012957 0
-0.059498 0.008837 0
-0.062441 0.004550 0
-0.064323 0.000286 0
-0.065138 -0.003801 0
-0.064915 -0.007590 0
-0.063709 -0.010987 0
-0.061594 -0.013924 0
-0.058662 -0.016355 0
-0.055018 -0.018253 0
-0.050778 -0.019611 0
-0.046063 -0.020435 0
-0.040999 -0.020748 0
-0.035709 -0.020582 0
-0.030317 -0.019982 0
-0.024938 -0.018999 0
-0.019678 -0.017690 0
-0.014633 -0.016114 0
-0.009886 -0.014333 0
-0.005505 -0.012405 0
-0.001547 -0.010387 0
0.001945 -0.008330 0
0.004946 -0.006279 0
0.007441 -0.004270 0
0.009425 -0.002334 0
0.010908 -0.000494 0
0.011904 0.001228 0
0.012436 0.002818 0
0.012534 0.004263 0
0.012234 0.005549 0
0.011575 0.006658 0
0.010599 0.007566 0
0.009357 0.008233 0
0.007902 0.008607 0
0.006303 0.008619 0
0.004640 0.008184 0
0.003017 0.007204 0
0.001569 0.005575 0
0.000480 0.003201 0
0.000000 0.000000 0
0.000000 0.000000 0
-0.001097 0.007343 0
-0.004029 0.014207 0
-0.008481 0.020212 0
-0.014153 0.025021 0
-0.020736 0.028380 0
-0.027913 0.030144 0
-0.035360 0.030289 0
-0.042767 0.028908 0
-0.049851 0.026191 0
-0.056364 0.022393 0
-0.062107 0.017801 0
-0.066931 0.012702 0
-0.070733 0.007362 0
-0.073454 0.002013 0
-0.075074 -0.003154 0
-0.075608 -0.007987 0
-0.075094 -0.012371 0
-0.073593 -0.016218 0
-0.071182 -0.019465 0
-0.067954 -0.022073 0
-0.064014 -0.024026 0
-0.059477 -0.025323 0
-0.054462 -0.025983 0
-0.049097 -0.026039 0
-0.043504 -0.025539 0
-0.037808 -0.024539 0
-0.032124 -0.023106 0
-0.026559 -0.021310 0
-0.021211 -0.019225 0
-0.016164 -0.016925 0
-0.011487 -0.014478 0
-0.007237 -0.011952 0
-0.003457 -0.009402 0
-0.000174 -0.006880 0
0.002596 -0.004427 0
0.004850 -0.002079 0
0.006594 0.000137 0
0.007842 0.002196 0
0.008617 0.004079 0
0.008952 0.005766 0
0.008882 0.007237 0
0.008449 0.008460 0
0.007698 0.009392 0
0.006680 0.009972 0
0.005456 0.010118 0
0.004103 0.009726 0
0.002720 0.008668 0
0.001440 0.006801 0
0.000448 0.003967 0
0.000000 0.000000 0
0.000000 0.000000 0
-0.001174 0.009440 0
-0.004323 0.018053 0
-0.009112 0.025487 0
-0.015221 0.031409 0
-0.022325 0.035559 0
-0.030094 0.037787 0
-0.038200 0.038075 0
-0.046325 0.036537 0
-0.054184 0.033395 0
-0.061524 0.028947 0
-0.068141 0.023524 0
-0.073874 0.017463 0
-0.078611 0.011073 0
-0.082277 0.004627 0
-0.084835 -0.001647 0
-0.086284 -0.007570 0
-0.086642 -0.013002 0
-0.085951 -0.017836 0
-0.084272 -0.021993 0
-0.081679 -0.025421 0
-0.078261 -0.028089 0
-0.074120 -0.029987 0
-0.069367 -0.031128 0
-0.064123 -0.031540 0
-0.058509 -0.031271 0
-0.052652 -0.030380 0
-0.046674 -0.028939 0
-0.040692 -0.027026 0
-0.034814 -0.024728 0
-0.029140 -0.022129 0
-0.023756 -0.019313 0
-0.018732 -0.016360 0
-0.014127 -0.013342 0
-0.009985 -0.010323 0
-0.006334 -0.007358 0
-0.003192 -0.004492 0
-0.000565 -0.001764 0
0.001553 0.000795 0
0.003172 0.003153 0
0.004314 0.005283 0
0.005010 0.007160 0
0.005294 0.008750 0
0.005207 0.010002 0
0.004793 0.010849 0
0.004106 0.011196 0
0.003214 0.010921 0
0.002205 0.009867 0
0.001204 0.007847 0
0.000386 0.004641 0
0.000000 0.000000 0
0.000000 -0.000000 0
-0.001230 0.011665 0
-0.004544 0.022145 0
-0.009600 0.031110 0
-0.016065 0.038234 0
-0.023607 0.043254 0
-0.031891 0.046019 0
-0.040585 0.046520 0
-0.049373 0.044892 0
-0.057966 0.041389 0
-0.066114 0.036350 0
-0.073607 0.030152 0
-0.080280 0.023172 0
-0.086007 0.015764 0
-0.090701 0.008238 0
-0.094307 0.000853 0
-0.096801 -0.006181 0
-0.098183 -0.012704 0
-0.098475 -0.018587 0
-0.097714 -0.023737 0
-0.095954 -0.028085 0
-0.093263 -0.031585 0
-0.089726 -0.034217 0
-0.085440 -0.035980 0
-0.080511 -0.036897 0
-0.075059 -0.037009 0
-0.069204 -0.036374 0
-0.063073 -0.035066 0
-0.056789 -0.033170 0
-0.050470 -0.030777 0
-0.044229 -0.027984 0
-0.038165 -0.024887 0
-0.032368 -0.021580 0
-0.026912 -0.018149 0
-0.021858 -0.014673 0
-0.017251 -0.011220 0
-0.013123 -0.007849 0
-0.009495 -0.004609 0
-0.006374 -0.001541 0
-0.003759 0.001318 0
-0.001646 0.003929 0
-0.000017 0.006257 0
0.001155 0.008263 0
0.001901 0.009893 0
0.002258 0.011073 0
0.002267 0.011698 0
0.001982 0.011627 0
0.001479 0.010678 0
0.000865 0.008620 0
0.000296 0.005171 0
0.000000 0.000000 0
0.000000 -0.000000 0
-0.001268 0.013984 0
-0.004702 0.026423 0
-0.009959 0.037008 0
-0.016704 0.045417 0
-0.024603 0.051385 0
-0.033321 0.054764 0
-0.042528 0.055557 0
-0.051913 0.053919 0
-0.061190 0.050137 0
-0.070110 0.044588 0
-0.078464 0.037690 0
-0.086080 0.029862 0
-0.092826 0.021494 0
-0.098602 0.012928 0
-0.103335 0.004453 0
-0.106978 -0.003694 0
-0.109511 -0.011328 0
-0.110930 -0.018305 0
-0.111250 -0.024515 0
-0.110499 -0.029872 0
-0.108724 -0.034316 0
-0.105986 -0.037811 0
-0.102361 -0.040343 0
-0.097942 -0.041921 0
-0.092834 -0.042578 0
-0.087153 -0.042366 0
-0.081022 -0.041354 0
-0.074567 -0.039629 0
-0.067914 -0.037288 0
-0.061185 -0.034434 0
-0.054495 -0.031174 0
-0.047949 -0.027613 0
-0.041638 -0.023852 0
-0.035641 -0.019984 0
-0.030022 -0.016092 0
-0.024831 -0.012248 0
-0.020104 -0.008514 0
-0.015865 -0.004941 0
-0.012126 -0.001575 0
-0.008895 0.001541 0
-0.006172 0.004359 0
-0.003948 0.006831 0
-0.002203 0.008899 0
-0.000914 0.010484 0
-0.000054 0.011472 0
0.000416 0.011708 0
0.000548 0.010984 0
0.000426 0.009030 0
0.000178 0.005506 0
0.000000 0.000000 0
0.000000 -0.000000 0
-0.001291 0.016367 0
-0.004805 0.030836 0
-0.010203 0.043112 0
-0.017156 0.052879 0
-0.025332 0.059870 0
-0.034401 0.063943 0
-0.044042 0.065112 0
-0.053949 0.063554 0
-0.063844 0.059587 0
-0.073484 0.053624 0
-0.082659 0.046121 0
-0.091200 0.037535 0
-0.098966 0.028287 0
-0.105847 0.018747 0
-0.111754 0.009229 0
-0.116620 -0.000006 0
-0.120396 -0.008752 0
-0.123057 -0.016849 0
-0.124592 -0.024168 0
-0.125004 -0.030610 0
-0.124312 -0.036098 0
-0.122552 -0.040580 0
-0.119776 -0.044024 0
-0.116055 -0.046424 0
-0.111478 -0.047798 0
-0.106148 -0.048187 0
-0.100182 -0.047653 0
-0.093703 -0.046278 0
-0.086842 -0.044158 0
-0.079728 -0.041402 0
-0.072487 -0.038123 0
-0.065240 -0.034438 0
-0.058095 -0.030457 0
-0.051149 -0.026289 0
-0.044487 -0.022030 0
-0.038177 -0.017767 0
-0.032275 -0.013575 0
-0.026822 -0.009518 0
-0.021849 -0.005652 0
-0.017376 -0.002026 0
-0.013418 0.001310 0
-0.009987 0.004294 0
-0.007087 0.006860 0
-0.004710 0.008924 0
-0.002847 0.010368 0
-0.001481 0.011026 0
-0.000587 0.010668 0
-0.000112 0.008990 0
0.000032 0.005597 0
0.000000 -0.000000 0
0.000000 -0.000000 0
-0.001301 0.018789 0
-0.004858 0.035335 0
-0.010344 0.049359 0
-0.017436 0.060545 0
-0.025812 0.068630 0
-0.035150 0.073474 0
-0.045140 0.075104 0
-0.055487 0.073721 0
-0.065922 0.069672 0
-0.076210 0.063403 0
-0.086149 0.055406 0
-0.095568 0.046169 0
-0.104325 0.036141 0
-0.112300 0.025715 0
-0.119394 0.015226 0
-0.125519 0.004948 0
-0.130600 -0.004890 0
-0.134587 -0.014109 0
-0.137442 -0.022567 0
-0.139142 -0.030151 0
-0.139677 -0.036769 0
-0.139055 -0.042348 0
-0.137300 -0.046840 0
-0.134459 -0.050219 0
-0.130598 -0.052485 0
-0.125802 -0.053662 0
-0.120175 -0.053799 0
-0.113834 -0.052969 0
-0.106909 -0.051264 0
-0.099533 -0.048789 0
-0.091841 -0.045662 0
-0.083966 -0.042006 0
-0.076035 -0.037943 0
-0.068162 -0.033592 0
-0.060450 -0.029064 0
-0.052991 -0.024460 0
-0.045860 -0.019869 0
-0.039120 -0.015367 0
-0.032821 -0.011021 0
-0.027002 -0.006890 0
-0.021695 -0.003030 0
-0.016926 0.000500 0
-0.012724 0.003622 0
-0.009111 0.006243 0
-0.006100 0.008243 0
-0.003702 0.009448 0
-0.001923 0.009615 0
-0.000750 0.008411 0
-0.000142 0.005394 0
0.000000 -0.000000 0
0.000000 -0.000000 0
-0.001300 0.021226 0
-0.004869 0.039879 0
-0.010394 0.055690 0
-0.017562 0.068346 0
-0.026062 0.077584 0
-0.035587 0.083271 0
-0.045839 0.085448 0
-0.056536 0.084336 0
-0.067423 0.080311 0
-0.078275 0.073851 0
-0.088897 0.065479 0
-0.099124 0.055711 0
-0.108812 0.045019 0
-0.117840 0.033816 0
-0.126096 0.022447 0
-0.133477 0.011200 0
-0.139891 0.000317 0
-0.145254 -0.010006 0
-0.149500 -0.019613 0
-0.152582 -0.028375 0
-0.154461 -0.036186 0
-0.155114 -0.042957 0
-0.154537 -0.048619 0
-0.152745 -0.053126 0
-0.149778 -0.056455 0
-0.145698 -0.058610 0
-0.140591 -0.059620 0
-0.134562 -0.059544 0
-0.127733 -0.058460 0
-0.120238 -0.056470 0
-0.112217 -0.053690 0
-0.103814 -0.050244 0
-0.095169 -0.046262 0
-0.086416 -0.041873 0
-0.077677 -0.037200 0
-0.069065 -0.032357 0
-0.060678 -0.027446 0
-0.052601 -0.022558 0
-0.044906 -0.017770 0
-0.037655 -0.013152 0
-0.030901 -0.008766 0
-0.024691 -0.004677 0
-0.019070 -0.000956 0
-0.014088 0.002300 0
-0.009794 0.004960 0
-0.006235 0.006848 0
-0.003454 0.007716 0
-0.001486 0.007209 0
-0.000345 0.004847 0
0.000000 -0.000000 0
0.000000 0.000000 0
-0.001289 0.023658 0
-0.004844 0.044430 0
-0.010363 0.062052 0
-0.017549 0.076214 0
-0.026104 0.086655 0
-0.035736 0.093251 0
-0.046161 0.096053 0
-0.057115 0.095306 0
-0.068357 0.091411 0
-0.079675 0.084877 0
-0.090883 0.076254 0
-0.101825 0.066084 0
-0.112361 0.054857 0
-0.122366 0.042998 0
-0.131724 0.030863 0
-0.140323 0.018744 0
-0.148053 0.006886 0
-0.154803 -0.004500 0
-0.160479 -0.015239 0
-0.165003 -0.025191 0
-0.168311 -0.034236 0
-0.170350 -0.042272 0
-0.171082 -0.049209 0
-0.170491 -0.054978 0
-0.168586 -0.059531 0
-0.165401 -0.062848 0
-0.160997 -0.064935 0
-0.155461 -0.065828 0
-0.148901 -0.065588 0
-0.141447 -0.064305 0
-0.133241 -0.062085 0
-0.124431 -0.059053 0
-0.115172 -0.055341 0
-0.105611 -0.051084 0
-0.095893 -0.046415 0
-0.086152 -0.041460 0
-0.076507 -0.036333 0
-0.067069 -0.031139 0
-0.057935 -0.025966 0
-0.049189 -0.020895 0
-0.040910 -0.015994 0
-0.033169 -0.011331 0
-0.026037 -0.006981 0
-0.019586 -0.003032 0
-0.013898 0.000390 0
-0.009061 0.003108 0
-0.005170 0.004866 0
-0.002314 0.005302 0
-0.000575 0.003908 0
0.000000 -0.000000 0
0.000000 0.000000 0
-0.001270 0.026070 0
-0.004786 0.048953 0
-0.010262 0.068395 0
-0.017413 0.084087 0
-0.025958 0.095771 0
-0.035619 0.103328 0
-0.046132 0.106828 0
-0.057248 0.106532 0
-0.068742 0.102871 0
-0.080418 0.096377 0
-0.092104 0.087629 0
-0.103649 0.077188 0
-0.114923 0.065560 0
-0.125803 0.053180 0
-0.136172 0.040404 0
-0.145911 0.027528 0
-0.154897 0.014796 0
-0.163006 0.002420 0
-0.170113 -0.009413 0
-0.176105 -0.020542 0
-0.180893 -0.030839 0
-0.184394 -0.040186 0
-0.186539 -0.048478 0
-0.187280 -0.055622 0
-0.186588 -0.061545 0
-0.184466 -0.066199 0
-0.180944 -0.069561 0
-0.176084 -0.071640 0
-0.169977 -0.072473 0
-0.162739 -0.072131 0
-0.154508 -0.070706 0
-0.145435 -0.068313 0
-0.135682 -0.065082 0
-0.125414 -0.061151 0
-0.114791 -0.056660 0
-0.103969 -0.051743 0
-0.093093 -0.046528 0
-0.082298 -0.041130 0
-0.071706 -0.035650 0
-0.061430 -0.030176 0
-0.051573 -0.024786 0
-0.042234 -0.019549 0
-0.033513 -0.014539 0
-0.025514 -0.009840 0
-0.018349 -0.005565 0
-0.012146 -0.001880 0
-0.007054 0.000969 0
-0.003229 0.002614 0
-0.000830 0.002533 0
0.000000 -0.000000 0
0.000000 0.000000 0
-0.001245 0.028445 0
-0.004703 0.053421 0
-0.010101 0.074678 0
-0.017172 0.091909 0
-0.025647 0.104862 0
-0.035266 0.113425 0
-0.045782 0.117681 0
-0.056965 0.117916 0
-0.068608 0.114582 0
-0.080529 0.108238 0
-0.092571 0.099485 0
-0.104595 0.088903 0
-0.116479 0.077011 0
-0.128108 0.064248 0
-0.139366 0.050970 0
-0.150133 0.037469 0
-0.160281 0.023982 0
-0.169674 0.010716 0
-0.178169 -0.002140 0
-0.185617 -0.014411 0
-0.191896 -0.025948 0
-0.196901 -0.036625 0
-0.200531 -0.046323 0
-0.202702 -0.054929 0
-0.203353 -0.062345 0
-0.202445 -0.068492 0
-0.199976 -0.073317 0
-0.195976 -0.076794 0
-0.190508 -0.078933 0
-0.183672 -0.079774 0
-0.175592 -0.079390 0
-0.166418 -0.077879 0
-0.156317 -0.075363 0
-0.145462 -0.071976 0
-0.134034 -0.067860 0
-0.122207 -0.063157 0
-0.110153 -0.058004 0
-0.098031 -0.052526 0
-0.085992 -0.046835 0
-0.074176 -0.041028 0
-0.062715 -0.035189 0
-0.051739 -0.029391 0
-0.041378 -0.023701 0
-0.031769 -0.018197 0
-0.023062 -0.012977 0
-0.015431 -0.008187 0
-0.009073 -0.004052 0
-0.004216 -0.000921 0
-0.001109 0.000680 0
0.000000 -0.000000 0
0.000000 0.000000 0
-0.001215 0.030772 0
-0.004598 0.057809 0
-0.009892 0.080864 0
-0.016841 0.099632 0
-0.025194 0.113866 0
-0.034706 0.123464 0
-0.045146 0.128527 0
-0.056305 0.129358 0
-0.067992 0.126434 0
-0.080042 0.120339 0
-0.092314 0.111695 0
-0.104682 0.101096 0
-0.117035 0.089073 0
-0.129266 0.076066 0
-0.141266 0.062429 0
-0.152920 0.048444 0
-0.164099 0.034338 0
-0.174660 0.020307 0
-0.184448 0.006530 0
-0.193299 -0.006815 0
-0.201047 -0.019555 0
-0.207558 -0.031552 0
-0.212706 -0.042676 0
-0.216375 -0.052800 0
-0.218465 -0.061802 0
-0.218902 -0.069575 0
-0.217641 -0.076031 0
-0.214674 -0.081107 0
-0.210034 -0.084777 0
-0.203791 -0.087047 0
-0.196053 -0.087959 0
-0.186959 -0.087588 0
-0.176673 -0.086038 0
-0.165379 -0.083434 0
-0.153269 -0.079914 0
-0.140540 -0.075624 0
-0.127385 -0.070704 0
-0.113994 -0.065292 0
-0.100544 -0.059506 0
-0.087207 -0.053454 0
-0.074145 -0.047222 0
-0.061521 -0.040886 0
-0.049496 -0.034510 0
-0.038244 -0.028156 0
-0.027956 -0.021903 0
-0.018851 -0.015869 0
-0.011183 -0.010246 0
-0.005254 -0.005350 0
-0.001404 -0.001683 0
0.000000 -0.000000 0
0.000000 0.000000 0
-0.001181 0.033043 0
-0.004477 0.062098 0
-0.009644 0.086922 0
-0.016439 0.107211 0
-0.024623 0.122726 0
-0.033968 0.133377 0
-0.044260 0.139280 0
-0.055307 0.140761 0
-0.066936 0.138319 0
-0.079001 0.132560 0
-0.091374 0.124125 0
-0.103946 0.113624 0
-0.116616 0.101595 0
-0.129290 0.088479 0
-0.141868 0.074625 0
-0.154242 0.060301 0
-0.166288 0.045721 0
-0.177865 0.031066 0
-0.188813 0.016500 0
-0.198958 0.002187 0
-0.208112 -0.011690 0
-0.216091 -0.024967 0