# vtk DataFile Version 2.0
generated by CFD-lab course output (written by Tobias Neckel) 
ASCII

DATASET STRUCTURED_GRID
DIMENSIONS  51 51 1 
POINTS 2601 float

0.000000 0.000000 0
0.020000 0.000000 0
0.040000 0.000000 0
0.060000 0.000000 0
0.080000 0.000000 0
0.100000 0.000000 0
0.120000 0.000000 0
0.140000 0.000000 0
0.160000 0.000000 0
0.180000 0.000000 0
0.200000 0.000000 0
0.220000 0.000000 0
0.240000 0.000000 0
0.260000 0.000000 0
0.280000 0.000000 0
0.300000 0.000000 0
0.320000 0.000000 0
0.340000 0.000000 0
0.360000 0.000000 0
0.380000 0.000000 0
0.400000 0.000000 0
0.420000 0.000000 0
0.440000 0.000000 0
0.460000 0.000000 0
0.480000 0.000000 0
0.500000 0.000000 0
0.520000 0.000000 0
0.540000 0.000000 0
0.560000 0.000000 0
0.580000 0.000000 0
0.600000 0.000000 0
0.620000 0.000000 0
0.640000 0.000000 0
0.660000 0.000000 0
0.680000 0.000000 0
0.700000 0.000000 0
0.720000 0.000000 0
0.740000 0.000000 0
0.760000 0.000000 0
0.780000 0.000000 0
0.800000 0.000000 0
0.820000 0.000000 0
0.840000 0.000000 0
0.860000 0.000000 0
0.880000 0.000000 0
0.900000 0.000000 0
0.920000 0.000000 0
0.940000 0.000000 0
0.960000 0.000000 0
0.980000 0.000000 0
1.000000 0.000000 0
0.000000 0.020000 0
0.020000 0.020000 0
0.040000 0.020000 0
0.060000 0.020000 0
0.080000 0.020000 0
0.100000 0.020000 0
0.120000 0.020000 0
0.140000 0.020000 0
0.160000 0.020000 0
0.180000 0.020000 0
0.200000 0.020000 0
0.220000 0.020000 0
0.240000 0.020000 0
0.260000 0.020000 0
0.280000 0.020000 0
0.300000 0.020000 0
0.320000 0.020000 0
0.340000 0.020000 0
0.360000 0.020000 0
0.380000 0.020000 0
0.400000 0.020000 0
0.420000 0.020000 0
0.440000 0.020000 0
0.460000 0.020000 0
0.480000 0.020000 0
0.500000 0.020000 0
0.520000 0.020000 0
0.540000 0.020000 0
0.560000 0.020000 0
0.580000 0.020000 0
0.600000 0.020000 0
0.620000 0.020000 0
0.640000 0.020000 0
0.660000 0.020000 0
0.680000 0.020000 0
0.700000 0.020000 0
0.720000 0.020000 0
0.740000 0.020000 0
0.760000 0.020000 0
0.780000 0.020000 0
0.800000 0.020000 0
0.820000 0.020000 0
0.840000 0.020000 0
0.860000 0.020000 0
0.880000 0.020000 0
0.900000 0.020000 0
0.920000 0.020000 0
0.940000 0.020000 0
0.960000 0.020000 0
0.980000 0.020000 0
1.000000 0.020000 0
0.000000 0.040000 0
0.020000 0.040000 0
0.040000 0.040000 0
0.060000 0.040000 0
0.080000 0.040000 0
0.100000 0.040000 0
0.120000 0.040000 0
0.140000 0.040000 0
0.160000 0.040000 0
0.180000 0.040000 0
0.200000 0.040000 0
0.220000 0.040000 0
0.240000 0.040000 0
0.260000 0.040000 0
0.280000 0.040000 0
0.300000 0.040000 0
0.320000 0.040000 0
0.340000 0.040000 0
0.360000 0.040000 0
0.380000 0.040000 0
0.400000 0.040000 0
0.420000 0.040000 0
0.440000 0.040000 0
0.460000 0.040000 0
0.480000 0.040000 0
0.500000 0.040000 0
0.520000 0.040000 0
0.540000 0.040000 0
0.560000 0.040000 0
0.580000 0.040000 0
0.600000 0.040000 0
0.620000 0.040000 0
0.640000 0.040000 0
0.660000 0.040000 0
0.680000 0.040000 0
0.700000 0.040000 0
0.720000 0.040000 0
0.740000 0.040000 0
0.760000 0.040000 0
0.780000 0.040000 0
0.800000 0.040000 0
0.820000 0.040000 0
0.840000 0.040000 0
0.860000 0.040000 0
0.880000 0.040000 0
0.900000 0.040000 0
0.920000 0.040000 0
0.940000 0.040000 0
0.960000 0.040000 0
0.980000 0.040000 0
1.000000 0.040000 0
0.000000 0.060000 0
0.020000 0.060000 0
0.040000 0.060000 0
0.060000 0.060000 0
0.080000 0.060000 0
0.100000 0.060000 0
0.120000 0.060000 0
0.140000 0.060000 0
0.160000 0.060000 0
0.180000 0.060000 0
0.200000 0.060000 0
0.220000 0.060000 0
0.240000 0.060000 0
0.260000 0.060000 0
0.280000 0.060000 0
0.300000 0.060000 0
0.320000 0.060000 0
0.340000 0.060000 0
0.360000 0.060000 0
0.380000 0.060000 0
0.400000 0.060000 0
0.420000 0.060000 0
0.440000 0.060000 0
0.460000 0.060000 0
0.480000 0.060000 0
0.500000 0.060000 0
0.520000 0.060000 0
0.540000 0.060000 0
0.560000 0.060000 0
0.580000 0.060000 0
0.600000 0.060000 0
0.620000 0.060000 0
0.640000 0.060000 0
0.660000 0.060000 0
0.680000 0.060000 0
0.700000 0.060000 0
0.720000 0.060000 0
0.740000 0.060000 0
0.760000 0.060000 0
0.780000 0.060000 0
0.800000 0.060000 0
0.820000 0.060000 0
0.840000 0.060000 0
0.860000 0.060000 0
0.880000 0.060000 0
0.900000 0.060000 0
0.920000 0.060000 0
0.940000 0.060000 0
0.960000 0.060000 0
0.980000 0.060000 0
1.000000 0.060000 0
0.000000 0.080000 0
0.020000 0.080000 0
0.040000 0.080000 0
0.060000 0.080000 0
0.080000 0.080000 0
0.100000 0.080000 0
0.120000 0.080000 0
0.140000 0.080000 0
0.160000 0.080000 0
0.180000 0.080000 0
0.200000 0.080000 0
0.220000 0.080000 0
0.240000 0.080000 0
0.260000 0.080000 0
0.280000 0.080000 0
0.300000 0.080000 0
0.320000 0.080000 0
0.340000 0.080000 0
0.360000 0.080000 0
0.380000 0.080000 0
0.400000 0.080000 0
0.420000 0.080000 0
0.440000 0.080000 0
0.460000 0.080000 0
0.480000 0.080000 0
0.500000 0.080000 0
0.520000 0.080000 0
0.540000 0.080000 0
0.560000 0.080000 0
0.580000 0.080000 0
0.600000 0.080000 0
0.620000 0.080000 0
0.640000 0.080000 0
0.660000 0.080000 0
0.680000 0.080000 0
0.700000 0.080000 0
0.720000 0.080000 0
0.740000 0.080000 0
0.760000 0.080000 0
0.780000 0.080000 0
0.800000 0.080000 0
0.820000 0.080000 0
0.840000 0.080000 0
0.860000 0.080000 0
0.880000 0.080000 0
0.900000 0.080000 0
0.920000 0.080000 0
0.940000 0.080000 0
0.960000 0.080000 0
0.980000 0.080000 0
1.000000 0.080000 0
0.000000 0.100000 0
0.020000 0.100000 0
0.040000 0.100000 0
0.060000 0.100000 0
0.080000 0.100000 0
0.100000 0.100000 0
0.120000 0.100000 0
0.140000 0.100000 0
0.160000 0.100000 0
0.180000 0.100000 0
0.200000 0.100000 0
0.220000 0.100000 0
0.240000 0.100000 0
0.260000 0.100000 0
0.280000 0.100000 0
0.300000 0.100000 0
0.320000 0.100000 0
0.340000 0.100000 0
0.360000 0.100000 0
0.380000 0.100000 0
0.400000 0.100000 0
0.420000 0.100000 0
0.440000 0.100000 0
0.460000 0.100000 0
0.480000 0.100000 0
0.500000 0.100000 0
0.520000 0.100000 0
0.540000 0.100000 0
0.560000 0.100000 0
0.580000 0.100000 0
0.600000 0.100000 0
0.620000 0.100000 0
0.640000 0.100000 0
0.660000 0.100000 0
0.680000 0.100000 0
0.700000 0.100000 0
0.720000 0.100000 0
0.740000 0.100000 0
0.760000 0.100000 0
0.780000 0.100000 0
0.800000 0.100000 0
0.820000 0.100000 0
0.840000 0.100000 0
0.860000 0.100000 0
0.880000 0.100000 0
0.900000 0.100000 0
0.920000 0.100000 0
0.940000 0.100000 0
0.960000 0.100000 0
0.980000 0.100000 0
1.000000 0.100000 0
0.000000 0.120000 0
0.020000 0.120000 0
0.040000 0.120000 0
0.060000 0.120000 0
0.080000 0.120000 0
0.100000 0.120000 0
0.120000 0.120000 0
0.140000 0.120000 0
0.160000 0.120000 0
0.180000 0.120000 0
0.200000 0.120000 0
0.220000 0.120000 0
0.240000 0.120000 0
0.260000 0.120000 0
0.280000 0.120000 0
0.300000 0.120000 0
0.320000 0.120000 0
0.340000 0.120000 0
0.360000 0.120000 0
0.380000 0.120000 0
0.400000 0.120000 0
0.420000 0.120000 0
0.440000 0.120000 0
0.460000 0.120000 0
0.480000 0.120000 0
0.500000 0.120000 0
0.520000 0.120000 0
0.540000 0.120000 0
0.560000 0.120000 0
0.580000 0.120000 0
0.600000 0.120000 0
0.620000 0.120000 0
0.640000 0.120000 0
0.660000 0.120000 0
0.680000 0.120000 0
0.700000 0.120000 0
0.720000 0.120000 0
0.740000 0.120000 0
0.760000 0.120000 0
0.780000 0.120000 0
0.800000 0.120000 0
0.820000 0.120000 0
0.840000 0.120000 0
0.860000 0.120000 0
0.880000 0.120000 0
0.900000 0.120000 0
0.920000 0.120000 0
0.940000 0.120000 0
0.960000 0.120000 0
0.980000 0.120000 0
1.000000 0.120000 0
0.000000 0.140000 0
0.020000 0.140000 0
0.040000 0.140000 0
0.060000 0.140000 0
0.080000 0.140000 0
0.100000 0.140000 0
0.120000 0.140000 0
0.140000 0.140000 0
0.160000 0.140000 0
0.180000 0.140000 0
0.200000 0.140000 0
0.220000 0.140000 0
0.240000 0.140000 0
0.260000 0.140000 0
0.280000 0.140000 0
0.300000 0.140000 0
0.320000 0.140000 0
0.340000 0.140000 0
0.360000 0.140000 0
0.380000 0.140000 0
0.400000 0.140000 0
0.420000 0.140000 0
0.440000 0.140000 0
0.460000 0.140000 0
0.480000 0.140000 0
0.500000 0.140000 0
0.520000 0.140000 0
0.540000 0.140000 0
0.560000 0.140000 0
0.580000 0.140000 0
0.600000 0.140000 0
0.620000 0.140000 0
0.640000 0.140000 0
0.660000 0.140000 0
0.680000 0.140000 0
0.700000 0.140000 0
0.720000 0.140000 0
0.740000 0.140000 0
0.760000 0.140000 0
0.780000 0.140000 0
0.800000 0.140000 0
0.820000 0.140000 0
0.840000 0.140000 0
0.860000 0.140000 0
0.880000 0.140000 0
0.900000 0.140000 0
0.920000 0.140000 0
0.940000 0.140000 0
0.960000 0.140000 0
0.980000 0.140000 0
1.000000 0.140000 0
0.000000 0.160000 0
0.020000 0.160000 0
0.040000 0.160000 0
0.060000 0.160000 0
0.080000 0.160000 0
0.100000 0.160000 0
0.120000 0.160000 0
0.140000 0.160000 0
0.160000 0.160000 0
0.180000 0.160000 0
0.200000 0.160000 0
0.220000 0.160000 0
0.240000 0.160000 0
0.260000 0.160000 0
0.280000 0.160000 0
0.300000 0.160000 0
0.320000 0.160000 0
0.340000 0.160000 0
0.360000 0.160000 0
0.380000 0.160000 0
0.400000 0.160000 0
0.420000 0.160000 0
0.440000 0.160000 0
0.460000 0.160000 0
0.480000 0.160000 0
0.500000 0.160000 0
0.520000 0.160000 0
0.540000 0.160000 0
0.560000 0.160000 0
0.580000 0.160000 0
0.600000 0.160000 0
0.620000 0.160000 0
0.640000 0.160000 0
0.660000 0.160000 0
0.680000 0.160000 0
0.700000 0.160000 0
0.720000 0.160000 0
0.740000 0.160000 0
0.760000 0.160000 0
0.780000 0.160000 0
0.800000 0.160000 0
0.820000 0.160000 0
0.840000 0.160000 0
0.860000 0.160000 0
0.880000 0.160000 0
0.900000 0.160000 0
0.920000 0.160000 0
0.940000 0.160000 0
0.960000 0.160000 0
0.980000 0.160000 0
1.000000 0.160000 0
0.000000 0.180000 0
0.020000 0.180000 0
0.040000 0.180000 0
0.060000 0.180000 0
0.080000 0.180000 0
0.100000 0.180000 0
0.120000 0.180000 0
0.140000 0.180000 0
0.160000 0.180000 0
0.180000 0.180000 0
0.200000 0.180000 0
0.220000 0.180000 0
0.240000 0.180000 0
0.260000 0.180000 0
0.280000 0.180000 0
0.300000 0.180000 0
0.320000 0.180000 0
0.340000 0.180000 0
0.360000 0.180000 0
0.380000 0.180000 0
0.400000 0.180000 0
0.420000 0.180000 0
0.440000 0.180000 0
0.460000 0.180000 0
0.480000 0.180000 0
0.500000 0.180000 0
0.520000 0.180000 0
0.540000 0.180000 0
0.560000 0.180000 0
0.580000 0.180000 0
0.600000 0.180000 0
0.620000 0.180000 0
[...]
POINT_DATA 2601 

VECTORS velocity float
0.000000 0.000000 0
0.000000 0.000000 0
0.000001 0.000000 0
0.000001 0.000000 0
0.000000 0.000000 0
-0.000000 0.000000 0
-0.000000 0.000000 0
-0.000000 0.000000 0
-0.000000 0.000000 0
-0.000000 0.000000 0
-0.000000 0.000000 0
-0.000000 0.000000 0
-0.000000 0.000000 0
-0.000000 0.000000 0
-0.000000 0.000000 0
-0.000000 0.000000 0
-0.000000 0.000000 0
-0.000000 0.000000 0
-0.000000 0.000000 0
-0.000000 0.000000 0
-0.000000 0.000000 0
-0.000000 0.000000 0
-0.000000 0.000000 0
-0.000000 0.000000 0
-0.000000 0.000000 0
-0.000000 0.000000 0
-0.000000 0.000000 0
0.000000 0.000000 0
0.000000 0.000000 0
0.000000 0.000000 0
0.000000 0.000000 0
0.000000 0.000000 0
0.000000 0.000000 0
0.000000 0.000000 0
0.000000 0.000000 0
0.000000 0.000000 0
0.000000 0.000000 0
0.000000 0.000000 0
0.000000 0.000000 0
0.000000 0.000000 0
0.000000 0.000000 0
0.000000 0.000000 0
0.000000 0.000000 0
0.000000 0.000000 0
0.000000 0.000000 0
0.000000 0.000000 0
0.000000 0.000000 0
0.000000 0.000000 0
0.000000 0.000000 0
0.000000 0.000000 0
0.000000 0.000000 0
0.000000 0.000000 0
-0.000006 0.000010 0
-0.000350 0.000244 0
-0.001114 0.000503 0
-0.002261 0.000719 0
-0.003700 0.000865 0
-0.005316 0.000936 0
-0.006988 0.000932 0
-0.008597 0.000861 0
-0.010043 0.000736 0
-0.011243 0.000570 0
-0.012139 0.000378 0
-0.012695 0.000175 0
-0.012899 -0.000029 0
-0.012755 -0.000223 0
-0.012282 -0.000400 0
-0.011511 -0.000555 0
-0.010482 -0.000683 0
-0.009238 -0.000785 0
-0.007827 -0.000857 0
-0.006297 -0.000903 0
-0.004694 -0.000921 0
-0.003065 -0.000915 0
-0.001450 -0.000888 0
0.000113 -0.000840 0
0.001592 -0.000778 0
0.002958 -0.000702 0
0.004190 -0.000618 0
0.005274 -0.000527 0
0.006198 -0.000433 0
0.006956 -0.000338 0
0.007546 -0.000243 0
0.007970 -0.000151 0
0.008232 -0.000064 0
0.008340 0.000019 0
0.008303 0.000096 0
0.008129 0.000167 0
0.007830 0.000233 0
0.007415 0.000292 0
0.006897 0.000345 0
0.006286 0.000392 0
0.005594 0.000433 0
0.004837 0.000464 0
0.004032 0.000485 0
0.003201 0.000491 0
0.002376 0.000475 0
0.001595 0.000431 0
0.000911 0.000348 0
0.000384 0.000223 0
0.000072 0.000072 0
0.000000 -0.000000 0
0.000000 0.000001 0
-0.000226 0.000351 0
-0.001079 0.001108 0
-0.002601 0.001910 0
-0.004726 0.002586 0
-0.007318 0.003056 0
-0.010196 0.003288 0
-0.013167 0.003281 0
-0.016043 0.003056 0
-0.018653 0.002646 0
-0.020858 0.002096 0
-0.022556 0.001452 0
-0.023682 0.000760 0
-0.024205 0.000060 0
-0.024126 -0.000617 0
-0.023472 -0.001244 0
-0.022287 -0.001800 0
-0.020632 -0.002274 0
-0.018579 -0.002655 0
-0.016205 -0.002942 0
-0.013590 -0.003133 0
-0.010815 -0.003232 0
-0.007960 -0.003244 0
-0.005097 -0.003178 0
-0.002293 -0.003041 0
0.000390 -0.002845 0
0.002902 -0.002599 0
0.005199 -0.002316 0
0.007248 -0.002008 0
0.009028 -0.001682 0
0.010522 -0.001348 0
0.011724 -0.001014 0
0.012633 -0.000687 0
0.013255 -0.000371 0
0.013599 -0.000070 0
0.013678 0.000212 0
0.013508 0.000473 0
0.013108 0.000714 0
0.012496 0.000933 0
0.011692 0.001129 0
0.010717 0.001302 0
0.009595 0.001448 0
0.008352 0.001562 0
0.007020 0.001636 0
0.005640 0.001656 0
0.004261 0.001606 0
0.002948 0.001464 0
0.001779 0.001211 0
0.000842 0.000839 0
0.000224 0.000384 0
0.000000 0.000000 0
0.000000 0.000001 0
-0.000468 0.001089 0
-0.001849 0.002618 0
-0.004094 0.004151 0
-0.007090 0.005436 0
-0.010661 0.006335 0
-0.014590 0.006786 0
-0.018638 0.006779 0
-0.022572 0.006347 0
-0.026178 0.005551 0
-0.029279 0.004473 0
-0.031739 0.003202 0
-0.033469 0.001823 0
-0.034422 0.000416 0
-0.034590 -0.000956 0
-0.033998 -0.002239 0
-0.032696 -0.003394 0
-0.030752 -0.004392 0
-0.028252 -0.005213 0
-0.025291 -0.005847 0
-0.021969 -0.006292 0
-0.018389 -0.006551 0
-0.014652 -0.006634 0
-0.010857 -0.006554 0
-0.007093 -0.006327 0
-0.003443 -0.005973 0
0.000021 -0.005511 0
0.003237 -0.004964 0
0.006153 -0.004356 0
0.008732 -0.003707 0
0.010948 -0.003034 0
0.012787 -0.002354 0
0.014241 -0.001682 0
0.015314 -0.001029 0
0.016013 -0.000404 0
0.016353 0.000187 0
0.016354 0.000737 0
0.016037 0.001245 0
0.015427 0.001708 0
0.014552 0.002124 0
0.013438 0.002489 0
0.012119 0.002798 0
0.010629 0.003039 0
0.009010 0.003198 0
0.007315 0.003250 0
0.005603 0.003166 0
0.003953 0.002912 0
0.002456 0.002455 0
0.001216 0.001777 0
0.000352 0.000914 0
0.000000 0.000000 0
0.000000 0.000000 0
-0.000678 0.002199 0
-0.002539 0.004734 0
-0.005441 0.007151 0
-0.009215 0.009154 0
-0.013648 0.010556 0
-0.018492 0.011265 0
-0.023480 0.011263 0
-0.028348 0.010595 0
-0.032856 0.009353 0
-0.036799 0.007656 0
-0.040019 0.005642 0
-0.042406 0.003443 0
-0.043899 0.001181 0
-0.044478 -0.001041 0
-0.044161 -0.003138 0
-0.042995 -0.005047 0
-0.041051 -0.006717 0
-0.038416 -0.008117 0
-0.035191 -0.009225 0
-0.031488 -0.010035 0
-0.027421 -0.010548 0
-0.023106 -0.010776 0
-0.018655 -0.010738 0
-0.014178 -0.010456 0
-0.009773 -0.009959 0
-0.005530 -0.009279 0
-0.001528 -0.008448 0
0.002166 -0.007503 0
0.005498 -0.006477 0
0.008428 -0.005403 0
0.010929 -0.004307 0
0.012989 -0.003213 0
0.014601 -0.002142 0
0.015771 -0.001110 0
0.016511 -0.000130 0
0.016840 0.000789 0
0.016780 0.001640 0
0.016360 0.002418 0
0.015611 0.003119 0
0.014565 0.003735 0
0.013261 0.004258 0
0.011739 0.004671 0
0.010047 0.004950 0
0.008240 0.005063 0
0.006388 0.004967 0
0.004571 0.004612 0
0.002889 0.003949 0
0.001462 0.002943 0
0.000435 0.001600 0
0.000000 0.000000 0
0.000000 0.000000 0
-0.000847 0.003628 0
-0.003118 0.007382 0
-0.006596 0.010827 0
-0.011058 0.013643 0
-0.016257 0.015612 0
-0.021918 0.016617 0
-0.027754 0.016635 0
-0.033481 0.015723 0
-0.038839 0.014002 0
-0.043606 0.011636 0
-0.047607 0.008809 0
-0.050716 0.005703 0
-0.052856 0.002487 0
-0.053996 -0.000694 0
-0.054145 -0.003722 0
-0.053342 -0.006505 0
-0.051649 -0.008971 0
-0.049152 -0.011072 0
-0.045951 -0.012774 0
-0.042155 -0.014062 0
-0.037884 -0.014934 0
-0.033260 -0.015400 0
-0.028404 -0.015482 0
-0.023436 -0.015210 0
-0.018468 -0.014620 0
-0.013606 -0.013755 0
-0.008942 -0.012660 0
-0.004556 -0.011383 0
-0.000518 -0.009969 0
0.003117 -0.008465 0
0.006310 -0.006915 0
0.009031 -0.005354 0
0.011269 -0.003812 0
0.013022 -0.002314 0
0.014294 -0.000882 0
0.015102 0.000469 0
0.015465 0.001725 0
0.015412 0.002877 0
0.014976 0.003919 0
0.014192 0.004839 0
0.013100 0.005625 0
0.011742 0.006254 0
0.010170 0.006696 0
0.008440 0.006909 0
0.006622 0.006836 0
0.004798 0.006411 0
0.003073 0.005564 0
0.001576 0.004232 0
0.000475 0.002375 0
0.000000 0.000000 0
0.000000 0.000000 0
-0.000978 0.005318 0
-0.003588 0.010483 0
-0.007557 0.015091 0
-0.012620 0.018815 0
-0.018499 0.021416 0
-0.024897 0.022761 0
-0.031510 0.022825 0
-0.038041 0.021680 0
-0.044219 0.019478 0
-0.049809 0.016424 0
-0.054621 0.012751 0
-0.058519 0.008691 0
-0.061411 0.004461 0
-0.063253 0.000249 0
-0.064040 -0.003793 0
-0.063799 -0.007543 0
-0.062584 -0.010906 0
-0.060470 -0.013815 0
-0.057546 -0.016222 0
-0.053917 -0.018102 0
-0.049699 -0.019444 0
-0.045012 -0.020257 0
-0.039982 -0.020562 0
-0.034731 -0.020391 0
-0.029383 -0.019788 0
-0.024051 -0.018805 0
-0.018842 -0.017498 0
-0.013851 -0.015926 0
-0.009159 -0.014151 0
-0.004835 -0.012231 0
-0.000935 -0.010221 0
0.002500 -0.008173 0
0.005444 -0.006133 0
0.007882 -0.004135 0
0.009812 -0.002210 0
0.011242 -0.000381 0
0.012189 0.001330 0
0.012674 0.002907 0
0.012729 0.004339 0
0.012389 0.005612 0
0.011694 0.006708 0
0.010687 0.007601 0
0.009417 0.008252 0
0.007940 0.008611 0
0.006323 0.008609 0
0.004648 0.008161 0
0.003018 0.007171 0
0.001567 0.005541 0
0.000478 0.003176 0
0.000000 0.000000 0
0.000000 0.000000 0
-0.001079 0.007217 0
-0.003963 0.013960 0
-0.008342 0.019859 0
-0.013920 0.024584 0
-0.020395 0.027888 0
-0.027455 0.029628 0
-0.034783 0.029780 0
-0.042073 0.028432 0
-0.049046 0.025769 0
-0.055459 0.022038 0
-0.061114 0.017519 0
-0.065861 0.012492 0
-0.069599 0.007221 0
-0.072268 0.001935 0
-0.073846 -0.003175 0
-0.074349 -0.007960 0
-0.073814 -0.012301 0
-0.072300 -0.016111 0
-0.069885 -0.019326 0
-0.066661 -0.021909 0
-0.062732 -0.023839 0
-0.058213 -0.025118 0
-0.053225 -0.025763 0
-0.047892 -0.025809 0
-0.042339 -0.025300 0
-0.036688 -0.024296 0
-0.031054 -0.022861 0
-0.025545 -0.021066 0
-0.020256 -0.018985 0
-0.015271 -0.016690 0
-0.010659 -0.014251 0
-0.006475 -0.011733 0
-0.002762 -0.009194 0
0.000453 -0.006682 0
0.003156 -0.004242 0
0.005344 -0.001908 0
0.007024 0.000293 0
0.008210 0.002338 0
0.008927 0.004204 0
0.009208 0.005874 0
0.009088 0.007327 0
0.008610 0.008531 0
0.007818 0.009443 0
0.006764 0.010002 0
0.005511 0.010128 0
0.004135 0.009716 0
0.002735 0.008645 0
0.001445 0.006771 0
0.000449 0.003943 0
0.000000 0.000000 0
0.000000 0.000000 0
-0.001156 0.009281 0
-0.004255 0.017745 0
-0.008968 0.025048 0
-0.014979 0.030868 0
-0.021971 0.034951 0
-0.029618 0.037149 0
-0.037597 0.037444 0
-0.045599 0.035944 0
-0.053339 0.032864 0
-0.060570 0.028492 0
-0.067088 0.023153 0
-0.072734 0.017176 0
-0.077395 0.010867 0
-0.080996 0.004496 0
-0.083500 -0.001711 0
-0.084904 -0.007575 0
-0.085226 -0.012956 0
-0.084510 -0.017744 0
-0.082812 -0.021862 0
-0.080210 -0.025255 0
-0.076791 -0.027892 0
-0.072657 -0.029764 0
-0.067921 -0.030883 0
-0.062700 -0.031277 0
-0.057119 -0.030993 0
-0.051302 -0.030090 0
-0.045371 -0.028641 0
-0.039443 -0.026725 0
-0.033626 -0.024425 0
-0.028017 -0.021828 0
-0.022702 -0.019016 0
-0.017751 -0.016070 0
-0.013223 -0.013061 0
-0.009158 -0.010052 0
-0.005586 -0.007100 0
-0.002522 -0.004249 0
0.000027 -0.001537 0
0.002069 0.001004 0
0.003614 0.003341 0
0.004686 0.005451 0
0.005315 0.007306 0
0.005539 0.008871 0
0.005396 0.010098 0
0.004933 0.010918 0
0.004203 0.011238 0
0.003275 0.010936 0
0.002238 0.009861 0
0.001218 0.007828 0
0.000389 0.004621 0
0.000000 0.000000 0
0.000000 0.000000 0
-0.001211 0.011472 0
-0.004475 0.021772 0
-0.009454 0.030583 0
-0.015820 0.037587 0
-0.023247 0.042526 0
-0.031405 0.045254 0
-0.039970 0.045761 0
-0.048629 0.044174 0
-0.057098 0.040740 0
-0.065130 0.035787 0
-0.072516 0.029683 0
-0.079091 0.022799 0
-0.084731 0.015483 0
-0.089349 0.008041 0
-0.092888 0.000733 0
-0.095325 -0.006233 0
-0.096658 -0.012695 0
-0.096910 -0.018525 0
-0.096118 -0.023627 0
-0.094335 -0.027930 0
-0.091630 -0.031391 0
-0.088088 -0.033988 0
-0.083806 -0.035720 0
-0.078891 -0.036610 0
-0.073462 -0.036699 0
-0.067640 -0.036044 0
-0.061550 -0.034720 0
-0.055315 -0.032812 0
-0.049055 -0.030411 0
-0.042879 -0.027613 0
-0.036888 -0.024516 0
-0.031169 -0.021212 0
-0.025795 -0.017787 0
-0.020827 -0.014319 0
-0.016308 -0.010878 0
-0.012271 -0.007521 0
-0.008733 -0.004298 0
-0.005701 -0.001249 0
-0.003175 0.001587 0
-0.001149 0.004173 0
0.000398 0.006474 0
0.001493 0.008450 0
0.002167 0.010049 0
0.002459 0.011195 0
0.002409 0.011786 0
0.002076 0.011681 0
0.001532 0.010702 0
0.000889 0.008620 0
0.000302 0.005161 0
0.000000 0.000000 0
0.000000 0.000000 0
-0.001250 0.013756 0
-0.004634 0.025986 0
-0.009814 0.036393 0
-0.016460 0.044662 0
-0.024244 0.050536 0
-0.032835 0.053871 0
-0.041912 0.054667 0
-0.051165 0.053073 0
-0.060314 0.049365 0
-0.069113 0.043909 0
-0.077352 0.037115 0
-0.084864 0.029392 0
-0.091515 0.021125 0
-0.097204 0.012653 0
-0.101860 0.004264 0
-0.105433 -0.003806 0
-0.107905 -0.011370 0
-0.109271 -0.018285 0
-0.109547 -0.024438 0
-0.108760 -0.029742 0
-0.106958 -0.034138 0
-0.104202 -0.037589 0
-0.100570 -0.040080 0
-0.096153 -0.041621 0
-0.091058 -0.042244 0
-0.085400 -0.042002 0
-0.079303 -0.040965 0
-0.072892 -0.039219 0
-0.066293 -0.036861 0
-0.059627 -0.033995 0
-0.053009 -0.030727 0
-0.046542 -0.027163 0
-0.040317 -0.023403 0
-0.034412 -0.019540 0
-0.028889 -0.015656 0
-0.023797 -0.011825 0
-0.019172 -0.008106 0
-0.015034 -0.004554 0
-0.011398 -0.001211 0
-0.008267 0.001878 0
-0.005643 0.004664 0
-0.003512 0.007101 0
-0.001856 0.009132 0
-0.000648 0.010675 0
0.000138 0.011621 0
0.000544 0.011813 0
0.000623 0.011048 0
0.000460 0.009058 0
0.000187 0.005510 0
0.000000 0.000000 0
0.000000 -0.000000 0
-0.001274 0.016105 0
-0.004738 0.030336 0
-0.010062 0.042409 0
-0.016917 0.052017 0
-0.024980 0.058902 0
-0.033925 0.062922 0
-0.043435 0.064090 0
-0.053210 0.062577 0
-0.062975 0.058688 0
-0.072490 0.052825 0
-0.081547 0.045434 0
-0.089977 0.036961 0
-0.097641 0.027823 0
-0.104427 0.018385 0
-0.110247 0.008961 0
-0.115034 -0.000189 0
-0.118739 -0.008857 0
-0.121336 -0.016883 0
-0.122815 -0.024137 0
-0.123180 -0.030518 0
-0.122449 -0.035949 0
-0.120659 -0.040377 0
-0.117864 -0.043769 0
-0.114134 -0.046122 0
-0.109559 -0.047451 0
-0.104242 -0.047799 0
-0.098301 -0.047229 0
-0.091858 -0.045822 0
-0.085045 -0.043675 0
-0.077989 -0.040897 0
-0.070817 -0.037601 0
-0.063648 -0.033904 0
-0.056591 -0.029917 0
-0.049740 -0.025748 0
-0.043179 -0.021493 0
-0.036975 -0.017239 0
-0.031182 -0.013061 0
-0.025842 -0.009023 0
-0.020982 -0.005180 0
-0.016622 -0.001582 0
-0.012776 0.001719 0
-0.009454 0.004663 0
-0.006658 0.007185 0
-0.004379 0.009201 0
-0.002604 0.010594 0
-0.001318 0.011197 0
-0.000490 0.010785 0
-0.000067 0.009055 0
0.000044 0.005621 0
0.000000 -0.000000 0
0.000000 -0.000000 0
-0.001284 0.018494 0
-0.004795 0.034774 0
-0.010209 0.048572 0
-0.017207 0.059580 0
-0.025473 0.067543 0
-0.034689 0.072326 0
-0.044551 0.073952 0
-0.054767 0.072613 0
-0.065073 0.068645 0
-0.075235 0.062481 0
-0.085053 0.054602 0
-0.094358 0.045485 0
-0.103007 0.035574 0
-0.110882 0.025259 0
-0.117882 0.014871 0
-0.123919 0.004686 0
-0.128921 -0.005068 0
-0.132835 -0.014208 0
-0.135626 -0.022593 0
-0.137269 -0.030108 0
-0.137755 -0.036659 0
-0.137093 -0.042175 0
-0.135309 -0.046605 0
-0.132448 -0.049926 0
-0.128578 -0.052136 0
-0.123785 -0.053260 0
-0.118174 -0.053349 0
-0.111861 -0.052475 0
-0.104976 -0.050731 0
-0.097651 -0.048222 0
-0.090024 -0.045068 0
-0.082224 -0.041390 0
-0.074378 -0.037311 0
-0.066600 -0.032952 0
-0.058992 -0.028421 0
-0.051643 -0.023821 0
-0.044627 -0.019240 0
-0.038007 -0.014754 0
-0.031829 -0.010431 0
-0.026134 -0.006329 0
-0.020949 -0.002503 0
-0.016302 0.000984 0
-0.012217 0.004056 0
-0.008716 0.006622 0
-0.005809 0.008560 0
-0.003504 0.009699 0
-0.001804 0.009797 0
-0.000694 0.008524 0
-0.000127 0.005443 0
0.000000 -0.000000 0
0.000000 0.000000 0
-0.001284 0.020900 0
-0.004810 0.039260 0
-0.010266 0.054821 0
-0.017345 0.067280 0
-0.025740 0.076384 0
-0.035149 0.082001 0
-0.045276 0.084168 0
-0.055846 0.083099 0
-0.066606 0.079157 0
-0.077332 0.072806 0
-0.087833 0.064556 0
-0.097944 0.054915 0
-0.107523 0.044347 0
-0.116446 0.033260 0
-0.124603 0.021998 0
-0.131893 0.010851 0
-0.138221 0.000059 0
-0.143504 -0.010178 0
-0.147679 -0.019704 0
-0.150697 -0.028389 0
-0.152519 -0.036125 0
-0.153125 -0.042823 0
-0.152508 -0.048414 0
-0.150688 -0.052852 0
-0.147703 -0.056114 0
-0.143618 -0.058204 0
-0.138517 -0.059153 0
-0.132507 -0.059020 0
-0.125710 -0.057885 0
-0.118260 -0.055849 0
-0.110297 -0.053028 0
-0.101964 -0.049549 0
-0.093401 -0.045541 0
-0.084740 -0.041134 0
-0.076104 -0.036450 0
-0.067602 -0.031603 0
-0.059333 -0.026697 0
-0.051379 -0.021821 0
-0.043812 -0.017053 0
-0.036692 -0.012463 0
-0.030069 -0.008113 0
-0.023989 -0.004068 0
-0.018496 -0.000400 0
-0.013637 0.002793 0
-0.009459 0.005382 0
-0.006006 0.007192 0
-0.003315 0.007974 0
-0.001419 0.007378 0
-0.000326 0.004927 0
0.000000 -0.000000 0
0.000000 0.000000 0
-0.001275 0.023304 0
-0.004788 0.043756 0
-0.010244 0.061106 0
-0.017346 0.075054 0
-0.025803 0.085347 0
-0.035324 0.091862 0
-0.045631 0.094650 0
-0.056463 0.093943 0
-0.067581 0.090132 0
-0.078776 0.083709 0
-0.089865 0.075213 0
-0.100691 0.065175 0
-0.111117 0.054077 0
-0.121016 0.042340 0
-0.130275 0.030317 0
-0.138779 0.018304 0
-0.146419 0.006544 0
-0.153087 -0.004750 0
-0.158686 -0.015401 0
-0.163142 -0.025268 0
-0.166388 -0.034231 0
-0.168373 -0.042185 0
-0.169060 -0.049042 0
-0.168434 -0.054731 0
-0.166505 -0.059206 0
-0.163306 -0.062446 0
-0.158901 -0.064460 0
-0.153375 -0.065283 0
-0.146840 -0.064978 0
-0.139424 -0.063635 0
-0.131268 -0.061363 0
-0.122522 -0.058286 0
-0.113339 -0.054536 0
-0.103866 -0.050249 0
-0.094248 -0.045559 0
-0.084615 -0.040592 0
-0.075088 -0.035462 0
-0.065774 -0.030274 0
-0.056770 -0.025118 0
-0.048158 -0.020072 0
-0.040015 -0.015206 0
-0.032411 -0.010590 0
-0.025413 -0.006296 0
-0.019092 -0.002415 0
-0.013528 0.000929 0
-0.008806 0.003555 0
-0.005014 0.005210 0
-0.002239 0.005535 0
-0.000554 0.004024 0
0.000000 -0.000000 0
0.000000 0.000000 0
-0.001257 0.025688 0
-0.004736 0.048229 0
-0.010153 0.067379 0
-0.017227 0.082839 0
-0.025680 0.094361 0
-0.035239 0.101829 0
-0.045640 0.105307 0
-0.056640 0.105049 0
-0.068017 0.101470 0
-0.079574 0.095090 0
-0.091143 0.086472 0
-0.102576 0.076166 0
-0.113740 0.064672 0
-0.124516 0.052418 0
-0.134785 0.039761 0
-0.144429 0.026995 0
-0.153326 0.014367 0
-0.161351 0.002089 0
-0.168380 -0.009649 0
-0.174301 -0.020687 0
-0.179024 -0.030894 0
-0.182469 -0.040151 0
-0.184566 -0.048353 0
-0.185267 -0.055407 0
-0.184545 -0.061242 0
-0.182404 -0.065808 0
-0.178875 -0.069084 0
-0.174019 -0.071081 0
-0.167930 -0.071836 0
-0.160722 -0.071421 0
-0.152535 -0.069930 0
-0.143519 -0.067479 0
-0.133836 -0.064197 0
-0.123649 -0.060225 0
-0.113120 -0.055702 0
-0.102403 -0.050763 0
-0.091641 -0.045537 0
-0.080969 -0.040139 0
-0.070505 -0.034669 0
-0.060363 -0.029217 0
-0.050643 -0.023860 0
-0.041443 -0.018670 0
-0.032860 -0.013719 0
-0.024994 -0.009092 0
-0.017957 -0.004905 0
-0.011873 -0.001322 0
-0.006886 0.001407 0
-0.003147 0.002918 0
-0.000807 0.002688 0
0.000000 -0.000000 0
0.000000 0.000000 0
-0.001233 0.028039 0
-0.004657 0.052651 0
-0.010003 0.073597 0
-0.017003 0.090582 0
-0.025395 0.103359 0
-0.034920 0.111822 0
-0.045333 0.116051 0
-0.056408 0.116319 0
-0.067939 0.113065 0
-0.079748 0.106835 0
-0.091678 0.098215 0
-0.103593 0.087772 0
-0.115372 0.076017 0
-0.126899 0.063385 0
-0.138060 0.050231 0
-0.148735 0.036844 0
-0.158795 0.023466 0
-0.168106 0.010304 0
-0.176524 -0.002451 0
-0.183901 -0.014624 0
-0.190116 -0.026064 0
-0.195064 -0.036644 0
-0.198645 -0.046244 0
-0.200775 -0.054751 0
-0.201393 -0.062068 0
-0.200463 -0.068117 0
-0.197982 -0.072845 0
-0.193981 -0.076227 0
-0.188525 -0.078275 0
-0.181713 -0.079030 0
-0.173670 -0.078567 0
-0.164547 -0.076985 0
-0.154509 -0.074405 0
-0.143730 -0.070965 0
-0.132389 -0.066805 0
-0.120661 -0.062071 0
-0.108715 -0.056897 0
-0.096710 -0.051410 0
-0.084795 -0.045724 0
-0.073109 -0.039934 0
-0.061782 -0.034126 0
-0.050943 -0.028373 0
-0.040718 -0.022744 0
-0.031242 -0.017317 0
-0.022664 -0.012192 0
-0.015152 -0.007516 0
-0.008900 -0.003517 0
-0.004131 -0.000544 0
-0.001084 0.000878 0
0.000000 -0.000000 0
0.000000 0.000000 0
-0.001205 0.030345 0
-0.004558 0.056999 0
-0.009804 0.079725 0
-0.016692 0.098232 0
-0.024970 0.112278 0
-0.034396 0.121768 0
-0.044743 0.126795 0
-0.055802 0.127655 0
-0.067385 0.124810 0
-0.079331 0.118828 0
-0.091497 0.110317 0
-0.103761 0.099860 0
-0.116014 0.087978 0
-0.128148 0.075106 0
-0.140056 0.061597 0
-0.151622 0.047731 0
-0.162717 0.033738 0
-0.173200 0.019817 0
-0.182916 0.006146 0
-0.191699 -0.007094 0
-0.199385 -0.019731 0
-0.205841 -0.031623 0
-0.210941 -0.042642 0
-0.214570 -0.052659 0
-0.216628 -0.061554 0
-0.217041 -0.069219 0
-0.215765 -0.075566 0
-0.212795 -0.080537 0
-0.208163 -0.084104 0
-0.201939 -0.086276 0
-0.194232 -0.087096 0
-0.185182 -0.086640 0
-0.174953 -0.085015 0
-0.163727 -0.082345 0
-0.151697 -0.078771 0
-0.139059 -0.074437 0
-0.126005 -0.069488 0
-0.112723 -0.064059 0
-0.099390 -0.058271 0
-0.086176 -0.052230 0
-0.073242 -0.046026 0
-0.060748 -0.039734 0
-0.048854 -0.033419 0
-0.037731 -0.027146 0
-0.027567 -0.020995 0
-0.018578 -0.015086 0
-0.011014 -0.009615 0
-0.005170 -0.004898 0
-0.001380 -0.001442 0
0.000000 -0.000000 0
0.000000 0.000000 0
-0.001172 0.032597 0
-0.004442 0.061251 0
-0.009568 0.085732 0
-0.016309 0.105747 0
-0.024427 0.121064 0
-0.033697 0.131596 0
-0.043906 0.137456 0
-0.054862 0.138961 0
-0.066397 0.136594 0
-0.078364 0.130947 0
-0.090640 0.122646 0
-0.103114 0.112289 0
-0.115691 0.100404 0
-0.128274 0.087427 0
-0.140766 0.073705 0
-0.153058 0.059506 0
-0.165027 0.045044 0
-0.176532 0.030503 0
-0.187413 0.016047 0
-0.197497 0.001846 0
-0.206594 -0.011921 0
-0.214522 -0.025087 0