# vtk DataFile Version 2.0
generated by CFD-lab course output (written by Tobias Neckel) 
ASCII

DATASET STRUCTURED_GRID
DIMENSIONS  51 51 1 
POINTS 2601 float

0.000000 0.000000 0
0.020000 0.000000 0
0.040000 0.000000 0
0.060000 0.000000 0
0.080000 0.000000 0
0.100000 0.000000 0
0.120000 0.000000 0
0.140000 0.000000 0
0.160000 0.000000 0
0.180000 0.000000 0
0.200000 0.000000 0
0.220000 0.000000 0
0.240000 0.000000 0
0.260000 0.000000 0
0.280000 0.000000 0
0.300000 0.000000 0
0.320000 0.000000 0
0.340000 0.000000 0
0.360000 0.000000 0
0.380000 0.000000 0
0.400000 0.000000 0
0.420000 0.000000 0
0.440000 0.000000 0
0.460000 0.000000 0
0.480000 0.000000 0
0.500000 0.000000 0
0.520000 0.000000 0
0.540000 0.000000 0
0.560000 0.000000 0
0.580000 0.000000 0
0.600000 0.000000 0
0.620000 0.000000 0
0.640000 0.000000 0
0.660000 0.000000 0
0.680000 0.000000 0
0.700000 0.000000 0
0.720000 0.000000 0
0.740000 0.000000 0
0.760000 0.000000 0
0.780000 0.000000 0
0.800000 0.000000 0
0.820000 0.000000 0
0.840000 0.000000 0
0.860000 0.000000 0
0.880000 0.000000 0
0.900000 0.000000 0
0.920000 0.000000 0
0.940000 0.000000 0
0.960000 0.000000 0
0.980000 0.000000 0
1.000000 0.000000 0
0.000000 0.020000 0
0.020000 0.020000 0
0.040000 0.020000 0
0.060000 0.020000 0
0.080000 0.020000 0
0.100000 0.020000 0
0.120000 0.020000 0
0.140000 0.020000 0
0.160000 0.020000 0
0.180000 0.020000 0
0.200000 0.020000 0
0.220000 0.020000 0
0.240000 0.020000 0
0.260000 0.020000 0
0.280000 0.020000 0
0.300000 0.020000 0
0.320000 0.020000 0
0.340000 0.020000 0
0.360000 0.020000 0
0.380000 0.020000 0
0.400000 0.020000 0
0.420000 0.020000 0
0.440000 0.020000 0
0.460000 0.020000 0
0.480000 0.020000 0
0.500000 0.020000 0
0.520000 0.020000 0
0.540000 0.020000 0
0.560000 0.020000 0
0.580000 0.020000 0
0.600000 0.020000 0
0.620000 0.020000 0
0.640000 0.020000 0
0.660000 0.020000 0
0.680000 0.020000 0
0.700000 0.020000 0
0.720000 0.020000 0
0.740000 0.020000 0
0.760000 0.020000 0
0.780000 0.020000 0
0.800000 0.020000 0
0.820000 0.020000 0
0.840000 0.020000 0
0.860000 0.020000 0
0.880000 0.020000 0
0.900000 0.020000 0
0.920000 0.020000 0
0.940000 0.020000 0
0.960000 0.020000 0
0.980000 0.020000 0
1.000000 0.020000 0
0.000000 0.040000 0
0.020000 0.040000 0
0.040000 0.040000 0
0.060000 0.040000 0
0.080000 0.040000 0
0.100000 0.040000 0
0.120000 0.040000 0
0.140000 0.040000 0
0.160000 0.040000 0
0.180000 0.040000 0
0.200000 0.040000 0
0.220000 0.040000 0
0.240000 0.040000 0
0.260000 0.040000 0
0.280000 0.040000 0
0.300000 0.040000 0
0.320000 0.040000 0
0.340000 0.040000 0
0.360000 0.040000 0
0.380000 0.040000 0
0.400000 0.040000 0
0.420000 0.040000 0
0.440000 0.040000 0
0.460000 0.040000 0
0.480000 0.040000 0
0.500000 0.040000 0
0.520000 0.040000 0
0.540000 0.040000 0
0.560000 0.040000 0
0.580000 0.040000 0
0.600000 0.040000 0
0.620000 0.040000 0
0.640000 0.040000 0
0.660000 0.040000 0
0.680000 0.040000 0
0.700000 0.040000 0
0.720000 0.040000 0
0.740000 0.040000 0
0.760000 0.040000 0
0.780000 0.040000 0
0.800000 0.040000 0
0.820000 0.040000 0
0.840000 0.040000 0
0.860000 0.040000 0
0.880000 0.040000 0
0.900000 0.040000 0
0.920000 0.040000 0
0.940000 0.040000 0
0.960000 0.040000 0
0.980000 0.040000 0
1.000000 0.040000 0
0.000000 0.060000 0
0.020000 0.060000 0
0.040000 0.060000 0
0.060000 0.060000 0
0.080000 0.060000 0
0.100000 0.060000 0
0.120000 0.060000 0
0.140000 0.060000 0
0.160000 0.060000 0
0.180000 0.060000 0
0.200000 0.060000 0
0.220000 0.060000 0
0.240000 0.060000 0
0.260000 0.060000 0
0.280000 0.060000 0
0.300000 0.060000 0
0.320000 0.060000 0
0.340000 0.060000 0
0.360000 0.060000 0
0.380000 0.060000 0
0.400000 0.060000 0
0.420000 0.060000 0
0.440000 0.060000 0
0.460000 0.060000 0
0.480000 0.060000 0
0.500000 0.060000 0
0.520000 0.060000 0
0.540000 0.060000 0
0.560000 0.060000 0
0.580000 0.060000 0
0.600000 0.060000 0
0.620000 0.060000 0
0.640000 0.060000 0
0.660000 0.060000 0
0.680000 0.060000 0
0.700000 0.060000 0
0.720000 0.060000 0
0.740000 0.060000 0
0.760000 0.060000 0
0.780000 0.060000 0
0.800000 0.060000 0
0.820000 0.060000 0
0.840000 0.060000 0
0.860000 0.060000 0
0.880000 0.060000 0
0.900000 0.060000 0
0.920000 0.060000 0
0.940000 0.060000 0
0.960000 0.060000 0
0.980000 0.060000 0
1.000000 0.060000 0
0.000000 0.080000 0
0.020000 0.080000 0
0.040000 0.080000 0
0.060000 0.080000 0
0.080000 0.080000 0
0.100000 0.080000 0
0.120000 0.080000 0
0.140000 0.080000 0
0.160000 0.080000 0
0.180000 0.080000 0
0.200000 0.080000 0
0.220000 0.080000 0
0.240000 0.080000 0
0.260000 0.080000 0
0.280000 0.080000 0
0.300000 0.080000 0
0.320000 0.080000 0
0.340000 0.080000 0
0.360000 0.080000 0
0.380000 0.080000 0
0.400000 0.080000 0
0.420000 0.080000 0
0.440000 0.080000 0
0.460000 0.080000 0
0.480000 0.080000 0
0.500000 0.080000 0
0.520000 0.080000 0
0.540000 0.080000 0
0.560000 0.080000 0
0.580000 0.080000 0
0.600000 0.080000 0
0.620000 0.080000 0
0.640000 0.080000 0
0.660000 0.080000 0
0.680000 0.080000 0
0.700000 0.080000 0
0.720000 0.080000 0
0.740000 0.080000 0
0.760000 0.080000 0
0.780000 0.080000 0
0.800000 0.080000 0
0.820000 0.080000 0
0.840000 0.080000 0
0.860000 0.080000 0
0.880000 0.080000 0
0.900000 0.080000 0
0.920000 0.080000 0
0.940000 0.080000 0
0.960000 0.080000 0
0.980000 0.080000 0
1.000000 0.080000 0
0.000000 0.100000 0
0.020000 0.100000 0
0.040000 0.100000 0
0.060000 0.100000 0
0.080000 0.100000 0
0.100000 0.100000 0
0.120000 0.100000 0
0.140000 0.100000 0
0.160000 0.100000 0
0.180000 0.100000 0
0.200000 0.100000 0
0.220000 0.100000 0
0.240000 0.100000 0
0.260000 0.100000 0
0.280000 0.100000 0
0.300000 0.100000 0
0.320000 0.100000 0
0.340000 0.100000 0
0.360000 0.100000 0
0.380000 0.100000 0
0.400000 0.100000 0
0.420000 0.100000 0
0.440000 0.100000 0
0.460000 0.100000 0
0.480000 0.100000 0
0.500000 0.100000 0
0.520000 0.100000 0
0.540000 0.100000 0
0.560000 0.100000 0
0.580000 0.100000 0
0.600000 0.100000 0
0.620000 0.100000 0
0.640000 0.100000 0
0.660000 0.100000 0
0.680000 0.100000 0
0.700000 0.100000 0
0.720000 0.100000 0
0.740000 0.100000 0
0.760000 0.100000 0
0.780000 0.100000 0
0.800000 0.100000 0
0.820000 0.100000 0
0.840000 0.100000 0
0.860000 0.100000 0
0.880000 0.100000 0
0.900000 0.100000 0
0.920000 0.100000 0
0.940000 0.100000 0
0.960000 0.100000 0
0.980000 0.100000 0
1.000000 0.100000 0
0.000000 0.120000 0
0.020000 0.120000 0
0.040000 0.120000 0
0.060000 0.120000 0
0.080000 0.120000 0
0.100000 0.120000 0
0.120000 0.120000 0
0.140000 0.120000 0
0.160000 0.120000 0
0.180000 0.120000 0
0.200000 0.120000 0
0.220000 0.120000 0
0.240000 0.120000 0
0.260000 0.120000 0
0.280000 0.120000 0
0.300000 0.120000 0
0.320000 0.120000 0
0.340000 0.120000 0
0.360000 0.120000 0
0.380000 0.120000 0
0.400000 0.120000 0
0.420000 0.120000 0
0.440000 0.120000 0
0.460000 0.120000 0
0.480000 0.120000 0
0.500000 0.120000 0
0.520000 0.120000 0
0.540000 0.120000 0
0.560000 0.120000 0
0.580000 0.120000 0
0.600000 0.120000 0
0.620000 0.120000 0
0.640000 0.120000 0
0.660000 0.120000 0
0.680000 0.120000 0
0.700000 0.120000 0
0.720000 0.120000 0
0.740000 0.120000 0
0.760000 0.120000 0
0.780000 0.120000 0
0.800000 0.120000 0
0.820000 0.120000 0
0.840000 0.120000 0
0.860000 0.120000 0
0.880000 0.120000 0
0.900000 0.120000 0
0.920000 0.120000 0
0.940000 0.120000 0
0.960000 0.120000 0
0.980000 0.120000 0
1.000000 0.120000 0
0.000000 0.140000 0
0.020000 0.140000 0
0.040000 0.140000 0
0.060000 0.140000 0
0.080000 0.140000 0
0.100000 0.140000 0
0.120000 0.140000 0
0.140000 0.140000 0
0.160000 0.140000 0
0.180000 0.140000 0
0.200000 0.140000 0
0.220000 0.140000 0
0.240000 0.140000 0
0.260000 0.140000 0
0.280000 0.140000 0
0.300000 0.140000 0
0.320000 0.140000 0
0.340000 0.140000 0
0.360000 0.140000 0
0.380000 0.140000 0
0.400000 0.140000 0
0.420000 0.140000 0
0.440000 0.140000 0
0.460000 0.140000 0
0.480000 0.140000 0
0.500000 0.140000 0
0.520000 0.140000 0
0.540000 0.140000 0
0.560000 0.140000 0
0.580000 0.140000 0
0.600000 0.140000 0
0.620000 0.140000 0
0.640000 0.140000 0
0.660000 0.140000 0
0.680000 0.140000 0
0.700000 0.140000 0
0.720000 0.140000 0
0.740000 0.140000 0
0.760000 0.140000 0
0.780000 0.140000 0
0.800000 0.140000 0
0.820000 0.140000 0
0.840000 0.140000 0
0.860000 0.140000 0
0.880000 0.140000 0
0.900000 0.140000 0
0.920000 0.140000 0
0.940000 0.140000 0
0.960000 0.140000 0
0.980000 0.140000 0
1.000000 0.140000 0
0.000000 0.160000 0
0.020000 0.160000 0
0.040000 0.160000 0
0.060000 0.160000 0
0.080000 0.160000 0
0.100000 0.160000 0
0.120000 0.160000 0
0.140000 0.160000 0
0.160000 0.160000 0
0.180000 0.160000 0
0.200000 0.160000 0
0.220000 0.160000 0
0.240000 0.160000 0
0.260000 0.160000 0
0.280000 0.160000 0
0.300000 0.160000 0
0.320000 0.160000 0
0.340000 0.160000 0
0.360000 0.160000 0
0.380000 0.160000 0
0.400000 0.160000 0
0.420000 0.160000 0
0.440000 0.160000 0
0.460000 0.160000 0
0.480000 0.160000 0
0.500000 0.160000 0
0.520000 0.160000 0
0.540000 0.160000 0
0.560000 0.160000 0
0.580000 0.160000 0
0.600000 0.160000 0
0.620000 0.160000 0
0.640000 0.160000 0
0.660000 0.160000 0
0.680000 0.160000 0
0.700000 0.160000 0
0.720000 0.160000 0
0.740000 0.160000 0
0.760000 0.160000 0
0.780000 0.160000 0
0.800000 0.160000 0
0.820000 0.160000 0
0.840000 0.160000 0
0.860000 0.160000 0
0.880000 0.160000 0
0.900000 0.160000 0
0.920000 0.160000 0
0.940000 0.160000 0
0.960000 0.160000 0
0.980000 0.160000 0
1.000000 0.160000 0
0.000000 0.180000 0
0.020000 0.180000 0
0.040000 0.180000 0
0.060000 0.180000 0
0.080000 0.180000 0
0.100000 0.180000 0
0.120000 0.180000 0
0.140000 0.180000 0
0.160000 0.180000 0
0.180000 0.180000 0
0.200000 0.180000 0
0.220000 0.180000 0
0.240000 0.180000 0
0.260000 0.180000 0
0.280000 0.180000 0
0.300000 0.180000 0
0.320000 0.180000 0
0.340000 0.180000 0
0.360000 0.180000 0
0.380000 0.180000 0
0.400000 0.180000 0
0.420000 0.180000 0
0.440000 0.180000 0
0.460000 0.180000 0
0.480000 0.180000 0
0.500000 0.180000 0
0.520000 0.180000 0
0.540000 0.180000 0
0.560000 0.180000 0
0.580000 0.180000 0
0.600000 0.180000 0
0.620000 0.180000 0
[...]
POINT_DATA 2601 

VECTORS velocity float
0.000000 0.000000 0
-0.000001 0.000000 0
-0.000000 0.000000 0
0.000000 0.000000 0
0.000001 0.000000 0
0.000000 0.000000 0
0.000000 0.000000 0
-0.000000 0.000000 0
-0.000000 0.000000 0
-0.000000 0.000000 0
-0.000000 0.000000 0
-0.000000 0.000000 0
-0.000000 0.000000 0
-0.000000 0.000000 0
-0.000000 0.000000 0
0.000000 0.000000 0
0.000000 0.000000 0
0.000000 0.000000 0
0.000000 0.000000 0
-0.000000 0.000000 0
-0.000000 0.000000 0
-0.000000 0.000000 0
-0.000000 0.000000 0
-0.000000 0.000000 0
0.000000 0.000000 0
0.000000 0.000000 0
0.000000 0.000000 0
0.000000 0.000000 0
0.000000 0.000000 0
-0.000000 0.000000 0
-0.000000 0.000000 0
-0.000000 0.000000 0
-0.000000 0.000000 0
-0.000000 0.000000 0
-0.000000 0.000000 0
0.000000 0.000000 0
0.000000 0.000000 0
0.000000 0.000000 0
0.000000 0.000000 0
0.000000 0.000000 0
0.000000 0.000000 0
0.000000 0.000000 0
0.000000 0.000000 0
-0.000000 0.000000 0
-0.000000 0.000000 0
0.000000 0.000000 0
0.000000 0.000000 0
0.000000 0.000000 0
0.000000 0.000000 0
0.000000 0.000000 0
0.000000 0.000000 0
0.000000 -0.000001 0
-0.000007 0.000010 0
-0.000356 0.000247 0
-0.001132 0.000512 0
-0.002297 0.000731 0
-0.003761 0.000880 0
-0.005404 0.000951 0
-0.007102 0.000946 0
-0.008736 0.000874 0
-0.010203 0.000746 0
-0.011420 0.000577 0
-0.012327 0.000383 0
-0.012890 0.000176 0
-0.013095 -0.000030 0
-0.012949 -0.000226 0
-0.012470 -0.000405 0
-0.011690 -0.000561 0
-0.010650 -0.000691 0
-0.009393 -0.000793 0
-0.007968 -0.000866 0
-0.006423 -0.000911 0
-0.004806 -0.000930 0
-0.003161 -0.000924 0
-0.001531 -0.000896 0
0.000046 -0.000848 0
0.001538 -0.000785 0
0.002917 -0.000709 0
0.004162 -0.000624 0
0.005256 -0.000532 0
0.006189 -0.000437 0
0.006956 -0.000341 0
0.007553 -0.000246 0
0.007984 -0.000154 0
0.008252 -0.000066 0
0.008364 0.000018 0
0.008330 0.000095 0
0.008159 0.000167 0
0.007862 0.000232 0
0.007449 0.000292 0
0.006931 0.000346 0
0.006320 0.000393 0
0.005628 0.000434 0
0.004869 0.000466 0
0.004061 0.000487 0
0.003227 0.000493 0
0.002397 0.000478 0
0.001611 0.000434 0
0.000922 0.000351 0
0.000390 0.000225 0
0.000074 0.000073 0
0.000000 -0.000000 0
0.000000 -0.000000 0
-0.000230 0.000356 0
-0.001096 0.001126 0
-0.002643 0.001942 0
-0.004803 0.002629 0
-0.007437 0.003106 0
-0.010363 0.003341 0
-0.013381 0.003332 0
-0.016301 0.003101 0
-0.018950 0.002684 0
-0.021186 0.002124 0
-0.022907 0.001470 0
-0.024048 0.000768 0
-0.024578 0.000059 0
-0.024499 -0.000625 0
-0.023838 -0.001258 0
-0.022642 -0.001820 0
-0.020971 -0.002297 0
-0.018899 -0.002682 0
-0.016502 -0.002970 0
-0.013864 -0.003163 0
-0.011064 -0.003262 0
-0.008183 -0.003274 0
-0.005295 -0.003207 0
-0.002466 -0.003069 0
0.000242 -0.002871 0
0.002778 -0.002623 0
0.005097 -0.002339 0
0.007167 -0.002028 0
0.008966 -0.001700 0
0.010478 -0.001364 0
0.011696 -0.001028 0
0.012619 -0.000698 0
0.013253 -0.000380 0
0.013608 -0.000078 0
0.013696 0.000205 0
0.013535 0.000468 0
0.013141 0.000710 0
0.012534 0.000931 0
0.011734 0.001129 0
0.010761 0.001303 0
0.009640 0.001451 0
0.008396 0.001567 0
0.007062 0.001642 0
0.005677 0.001664 0
0.004293 0.001615 0
0.002973 0.001475 0
0.001796 0.001222 0
0.000851 0.000848 0
0.000227 0.000390 0
0.000000 0.000000 0
0.000000 0.000000 0
-0.000475 0.001106 0
-0.001878 0.002661 0
-0.004160 0.004220 0
-0.007205 0.005526 0
-0.010835 0.006438 0
-0.014826 0.006894 0
-0.018938 0.006884 0
-0.022932 0.006442 0
-0.026592 0.005631 0
-0.029738 0.004535 0
-0.032233 0.003244 0
-0.033987 0.001847 0
-0.034955 0.000422 0
-0.035129 -0.000965 0
-0.034535 -0.002262 0
-0.033222 -0.003428 0
-0.031263 -0.004435 0
-0.028743 -0.005262 0
-0.025757 -0.005901 0
-0.022407 -0.006349 0
-0.018797 -0.006610 0
-0.015030 -0.006693 0
-0.011201 -0.006613 0
-0.007405 -0.006385 0
-0.003722 -0.006028 0
-0.000226 -0.005563 0
0.003021 -0.005013 0
0.005967 -0.004401 0
0.008575 -0.003748 0
0.010818 -0.003071 0
0.012681 -0.002388 0
0.014159 -0.001711 0
0.015252 -0.001054 0
0.015970 -0.000425 0
0.016328 0.000169 0
0.016343 0.000722 0
0.016039 0.001233 0
0.015441 0.001699 0
0.014574 0.002118 0
0.013468 0.002487 0
0.012153 0.002799 0
0.010666 0.003044 0
0.009049 0.003206 0
0.007351 0.003262 0
0.005636 0.003182 0
0.003980 0.002931 0
0.002474 0.002474 0
0.001226 0.001794 0
0.000355 0.000924 0
0.000000 0.000000 0
0.000000 0.000000 0
-0.000688 0.002235 0
-0.002579 0.004811 0
-0.005528 0.007268 0
-0.009362 0.009303 0
-0.013866 0.010727 0
-0.018787 0.011444 0
-0.023852 0.011438 0
-0.028795 0.010755 0
-0.033370 0.009489 0
-0.037370 0.007765 0
-0.040637 0.005720 0
-0.043059 0.003491 0
-0.044576 0.001201 0
-0.045169 -0.001046 0
-0.044856 -0.003165 0
-0.043687 -0.005092 0
-0.041732 -0.006777 0
-0.039079 -0.008188 0
-0.035833 -0.009305 0
-0.032103 -0.010122 0
-0.028006 -0.010640 0
-0.023658 -0.010870 0
-0.019172 -0.010832 0
-0.014657 -0.010549 0
-0.010215 -0.010050 0
-0.005934 -0.009367 0
-0.001894 -0.008532 0
0.001838 -0.007582 0
0.005207 -0.006550 0
0.008173 -0.005470 0
0.010709 -0.004368 0
0.012801 -0.003269 0
0.014443 -0.002192 0
0.015642 -0.001154 0
0.016409 -0.000168 0
0.016761 0.000757 0
0.016723 0.001613 0
0.016323 0.002396 0
0.015590 0.003102 0
0.014559 0.003724 0
0.013267 0.004252 0
0.011753 0.004671 0
0.010067 0.004957 0
0.008264 0.005077 0
0.006411 0.004987 0
0.004592 0.004636 0
0.002905 0.003975 0
0.001471 0.002967 0
0.000438 0.001616 0
0.000000 0.000000 0
0.000000 0.000001 0
-0.000859 0.003686 0
-0.003166 0.007500 0
-0.006699 0.011002 0
-0.011232 0.013864 0
-0.016512 0.015862 0
-0.022261 0.016880 0
-0.028186 0.016892 0
-0.033998 0.015960 0
-0.039436 0.014207 0
-0.044272 0.011803 0
-0.048331 0.008933 0
-0.051486 0.005786 0
-0.053661 0.002531 0
-0.054825 -0.000685 0
-0.054988 -0.003744 0
-0.054190 -0.006553 0
-0.052494 -0.009042 0
-0.049987 -0.011160 0
-0.046769 -0.012877 0
-0.042952 -0.014176 0
-0.038654 -0.015056 0
-0.033999 -0.015528 0
-0.029109 -0.015613 0
-0.024103 -0.015342 0
-0.019096 -0.014752 0
-0.014192 -0.013884 0
-0.009485 -0.012785 0
-0.005056 -0.011503 0
-0.000974 -0.010083 0
0.002706 -0.008573 0
0.005941 -0.007015 0
0.008705 -0.005446 0
0.010984 -0.003896 0
0.012775 -0.002391 0
0.014085 -0.000951 0
0.014927 0.000408 0
0.015323 0.001672 0
0.015300 0.002832 0
0.014890 0.003882 0
0.014130 0.004811 0
0.013058 0.005605 0
0.011718 0.006244 0
0.010159 0.006696 0
0.008440 0.006918 0
0.006628 0.006854 0
0.004808 0.006437 0
0.003083 0.005594 0
0.001583 0.004261 0
0.000478 0.002396 0
0.000000 0.000000 0
0.000000 0.000000 0
-0.000993 0.005402 0
-0.003643 0.010649 0
-0.007673 0.015333 0
-0.012814 0.019116 0
-0.018782 0.021756 0
-0.025277 0.023118 0
-0.031988 0.023176 0
-0.038616 0.022005 0
-0.044883 0.019763 0
-0.050552 0.016660 0
-0.055434 0.012933 0
-0.059389 0.008820 0
-0.062327 0.004539 0
-0.064204 0.000281 0
-0.065015 -0.003801 0
-0.064791 -0.007585 0
-0.063583 -0.010979 0
-0.061468 -0.013913 0
-0.058537 -0.016341 0
-0.054895 -0.018237 0
-0.050657 -0.019593 0
-0.045945 -0.020416 0
-0.040884 -0.020728 0
-0.035599 -0.020561 0
-0.030212 -0.019961 0
-0.024838 -0.018978 0
-0.019583 -0.017668 0
-0.014544 -0.016093 0
-0.009803 -0.014312 0
-0.005429 -0.012385 0
-0.001477 -0.010368 0
0.002009 -0.008312 0
0.005003 -0.006262 0
0.007491 -0.004255 0
0.009470 -0.002320 0
0.010947 -0.000481 0
0.011937 0.001240 0
0.012464 0.002829 0
0.012557 0.004272 0
0.012252 0.005556 0
0.011589 0.006664 0
0.010610 0.007570 0
0.009364 0.008235 0
0.007907 0.008608 0
0.006305 0.008619 0
0.004641 0.008182 0
0.003017 0.007201 0
0.001569 0.005572 0
0.000480 0.003198 0
0.000000 0.000000 0
0.000000 0.000000 0
-0.001095 0.007329 0
-0.004022 0.014179 0
-0.008466 0.020173 0
-0.014127 0.024973 0
-0.020699 0.028326 0
-0.027862 0.030087 0
-0.035296 0.030232 0
-0.042690 0.028855 0
-0.049761 0.026144 0
-0.056263 0.022354 0
-0.061997 0.017769 0
-0.066813 0.012678 0
-0.070607 0.007345 0
-0.073322 0.002003 0
-0.074937 -0.003157 0
-0.075467 -0.007985 0
-0.074951 -0.012364 0
-0.073449 -0.016207 0
-0.071037 -0.019450 0
-0.067810 -0.022056 0
-0.063871 -0.024006 0
-0.059335 -0.025301 0
-0.054324 -0.025959 0
-0.048961 -0.026014 0
-0.043373 -0.025513 0
-0.037682 -0.024512 0
-0.032003 -0.023079 0
-0.026445 -0.021283 0
-0.021103 -0.019198 0
-0.016063 -0.016898 0
-0.011394 -0.014453 0
-0.007151 -0.011927 0
-0.003378 -0.009379 0
-0.000103 -0.006857 0
0.002659 -0.004406 0
0.004906 -0.002060 0
0.006643 0.000155 0
0.007884 0.002213 0
0.008652 0.004093 0
0.008981 0.005779 0
0.008906 0.007247 0
0.008468 0.008469 0
0.007712 0.009399 0
0.006690 0.009976 0
0.005462 0.010120 0
0.004107 0.009725 0
0.002722 0.008666 0
0.001441 0.006798 0
0.000448 0.003965 0
0.000000 0.000000 0
0.000000 -0.000000 0
-0.001172 0.009423 0
-0.004316 0.018019 0
-0.009097 0.025438 0
-0.015195 0.031349 0
-0.022286 0.035491 0
-0.030042 0.037716 0
-0.038133 0.038005 0
-0.046245 0.036471 0
-0.054090 0.033336 0
-0.061418 0.028896 0
-0.068024 0.023482 0
-0.073748 0.017430 0
-0.078476 0.011049 0
-0.082135 0.004612 0
-0.084687 -0.001655 0
-0.086130 -0.007571 0
-0.086484 -0.012998 0
-0.085791 -0.017827 0
-0.084109 -0.021980 0
-0.081515 -0.025404 0
-0.078097 -0.028068 0
-0.073957 -0.029963 0
-0.069206 -0.031101 0
-0.063964 -0.031512 0
-0.058354 -0.031241 0
-0.052501 -0.030348 0
-0.046528 -0.028906 0
-0.040552 -0.026993 0
-0.034681 -0.024694 0
-0.029015 -0.022095 0
-0.023638 -0.019280 0
-0.018622 -0.016328 0
-0.014026 -0.013310 0
-0.009892 -0.010292 0
-0.006250 -0.007328 0
-0.003117 -0.004465 0
-0.000498 -0.001738 0
0.001611 0.000819 0
0.003222 0.003174 0
0.004356 0.005302 0
0.005044 0.007177 0
0.005322 0.008764 0
0.005228 0.010014 0
0.004809 0.010857 0
0.004117 0.011201 0
0.003221 0.010923 0
0.002209 0.009867 0
0.001206 0.007845 0
0.000387 0.004639 0
0.000000 0.000000 0
0.000000 -0.000000 0
-0.001228 0.011644 0
-0.004537 0.022103 0
-0.009584 0.031052 0
-0.016038 0.038163 0
-0.023567 0.043173 0
-0.031837 0.045934 0
-0.040516 0.046436 0
-0.049290 0.044812 0
-0.057870 0.041317 0
-0.066005 0.036287 0
-0.073487 0.030099 0
-0.080148 0.023130 0
-0.085865 0.015732 0
-0.090551 0.008215 0
-0.094150 0.000839 0
-0.096637 -0.006188 0
-0.098014 -0.012704 0
-0.098301 -0.018582 0
-0.097537 -0.023726 0
-0.095774 -0.028069 0
-0.093082 -0.031564 0
-0.089544 -0.034192 0
-0.085258 -0.035952 0
-0.080331 -0.036866 0
-0.074881 -0.036975 0
-0.069030 -0.036338 0
-0.062904 -0.035028 0
-0.056625 -0.033130 0
-0.050313 -0.030736 0
-0.044078 -0.027942 0
-0.038023 -0.024845 0
-0.032235 -0.021539 0
-0.026788 -0.018108 0
-0.021743 -0.014633 0
-0.017146 -0.011181 0
-0.013028 -0.007812 0
-0.009410 -0.004573 0
-0.006298 -0.001507 0
-0.003694 0.001349 0
-0.001591 0.003957 0
0.000029 0.006282 0
0.001193 0.008285 0
0.001931 0.009911 0
0.002280 0.011087 0
0.002283 0.011708 0
0.001993 0.011634 0
0.001485 0.010681 0
0.000868 0.008620 0
0.000297 0.005170 0
0.000000 0.000000 0
0.000000 -0.000000 0
-0.001266 0.013959 0
-0.004695 0.026375 0
-0.009943 0.036940 0
-0.016677 0.045333 0
-0.024563 0.051291 0
-0.033267 0.054665 0
-0.042460 0.055458 0
-0.051830 0.053825 0
-0.061093 0.050051 0
-0.070000 0.044512 0
-0.078341 0.037625 0
-0.085946 0.029809 0
-0.092681 0.021452 0
-0.098448 0.012896 0
-0.103172 0.004431 0
-0.106807 -0.003707 0
-0.109333 -0.011333 0
-0.110747 -0.018304 0
-0.111061 -0.024507 0
-0.110307 -0.029858 0
-0.108529 -0.034297 0
-0.105788 -0.037787 0
-0.102163 -0.040314 0
-0.097744 -0.041889 0
-0.092638 -0.042542 0
-0.086959 -0.042326 0
-0.080832 -0.041311 0
-0.074382 -0.039584 0
-0.067735 -0.037240 0
-0.061013 -0.034385 0
-0.054331 -0.031124 0
-0.047793 -0.027563 0
-0.041492 -0.023802 0
-0.035505 -0.019934 0
-0.029896 -0.016043 0
-0.024716 -0.012200 0
-0.020000 -0.008468 0
-0.015772 -0.004897 0
-0.012045 -0.001533 0
-0.008825 0.001579 0
-0.006113 0.004394 0
-0.003899 0.006862 0
-0.002164 0.008926 0
-0.000884 0.010506 0
-0.000032 0.011489 0
0.000430 0.011720 0
0.000557 0.010992 0
0.000430 0.009034 0
0.000179 0.005507 0
0.000000 -0.000000 0
0.000000 -0.000000 0
-0.001289 0.016338 0
-0.004797 0.030780 0
-0.010187 0.043035 0
-0.017129 0.052783 0
-0.025293 0.059763 0
-0.034348 0.063830 0
-0.043975 0.064998 0
-0.053867 0.063445 0
-0.063749 0.059487 0
-0.073374 0.053535 0
-0.082537 0.046045 0
-0.091065 0.037471 0
-0.098820 0.028235 0
-0.105690 0.018706 0
-0.111588 0.009198 0
-0.116445 -0.000027 0
-0.120214 -0.008764 0
-0.122868 -0.016853 0
-0.124396 -0.024166 0
-0.124803 -0.030601 0
-0.124107 -0.036083 0
-0.122343 -0.040558 0
-0.119565 -0.043996 0
-0.115843 -0.046391 0
-0.111267 -0.047760 0
-0.105939 -0.048144 0
-0.099975 -0.047606 0
-0.093500 -0.046227 0
-0.086644 -0.044105 0
-0.079536 -0.041346 0
-0.072303 -0.038065 0
-0.065064 -0.034378 0
-0.057929 -0.030397 0
-0.050994 -0.026228 0
-0.044343 -0.021970 0
-0.038044 -0.017708 0
-0.032154 -0.013517 0
-0.026714 -0.009463 0
-0.021753 -0.005599 0
-0.017292 -0.001975 0
-0.013347 0.001356 0
-0.009928 0.004336 0
-0.007039 0.006897 0
-0.004673 0.008955 0
-0.002820 0.010394 0
-0.001463 0.011045 0
-0.000576 0.010682 0
-0.000107 0.008998 0
0.000033 0.005600 0
0.000000 -0.000000 0
0.000000 -0.000000 0
-0.001299 0.018756 0
-0.004851 0.035273 0
-0.010329 0.049272 0
-0.017411 0.060438 0
-0.025774 0.068510 0
-0.035099 0.073347 0
-0.045075 0.074977 0
-0.055407 0.073598 0
-0.065829 0.069558 0
-0.076103 0.063300 0
-0.086028 0.055316 0
-0.095434 0.046092 0
-0.104180 0.036077 0
-0.112144 0.025664 0
-0.119228 0.015186 0
-0.125343 0.004918 0
-0.130415 -0.004911 0
-0.134394 -0.014121 0
-0.137243 -0.022571 0
-0.138936 -0.030148 0
-0.139466 -0.036757 0
-0.138840 -0.042329 0
-0.137082 -0.046814 0
-0.134239 -0.050187 0
-0.130376 -0.052446 0
-0.125581 -0.053617 0
-0.119955 -0.053750 0
-0.113618 -0.052915 0
-0.106697 -0.051204 0
-0.099326 -0.048726 0
-0.091641 -0.045596 0
-0.083775 -0.041937 0
-0.075853 -0.037872 0
-0.067990 -0.033521 0
-0.060290 -0.028992 0
-0.052843 -0.024389 0
-0.045725 -0.019798 0
-0.038998 -0.015298 0
-0.032712 -0.010954 0
-0.026907 -0.006827 0
-0.021613 -0.002970 0
-0.016857 0.000555 0
-0.012668 0.003671 0
-0.009067 0.006286 0
-0.006068 0.008279 0
-0.003680 0.009476 0
-0.001910 0.009636 0
-0.000744 0.008424 0
-0.000140 0.005400 0
0.000000 -0.000000 0
0.000000 0.000000 0
-0.001298 0.021190 0
-0.004863 0.039811 0
-0.010380 0.055594 0
-0.017538 0.068228 0
-0.026027 0.077451 0
-0.035539 0.083131 0
-0.045777 0.085306 0
-0.056460 0.084199 0
-0.067333 0.080183 0
-0.078171 0.073735 0
-0.088780 0.065376 0
-0.098994 0.055622 0
-0.108671 0.044944 0
-0.117687 0.033754 0
-0.125932 0.022396 0
-0.133303 0.011160 0
-0.139708 0.000287 0
-0.145062 -0.010026 0
-0.149301 -0.019624 0
-0.152375 -0.028377 0
-0.154248 -0.036180 0
-0.154896 -0.042943 0
-0.154315 -0.048597 0
-0.152520 -0.053096 0
-0.149551 -0.056418 0
-0.145471 -0.058565 0
-0.140364 -0.059569 0
-0.134337 -0.059486 0
-0.127512 -0.058396 0
-0.120021 -0.056401 0
-0.112007 -0.053616 0
-0.103612 -0.050166 0
-0.094976 -0.046182 0
-0.086232 -0.041791 0
-0.077505 -0.037117 0
-0.068905 -0.032273 0
-0.060531 -0.027363 0
-0.052467 -0.022475 0
-0.044786 -0.017690 0
-0.037550 -0.013075 0
-0.030810 -0.008693 0
-0.024614 -0.004609 0
-0.019007 -0.000894 0
-0.014038 0.002355 0
-0.009757 0.005007 0
-0.006210 0.006887 0
-0.003439 0.007745 0
-0.001478 0.007229 0
-0.000343 0.004856 0
0.000000 -0.000000 0
0.000000 0.000000 0
-0.001287 0.023619 0
-0.004837 0.044355 0
-0.010350 0.061947 0
-0.017526 0.076085 0
-0.026071 0.086511 0
-0.035690 0.093097 0
-0.046103 0.095898 0
-0.057043 0.095155 0
-0.068272 0.091269 0
-0.079576 0.084747 0
-0.090772 0.076139 0
-0.101701 0.065983 0
-0.112224 0.054770 0
-0.122218 0.042925 0
-0.131566 0.030802 0
-0.140154 0.018694 0
-0.147874 0.006848 0
-0.154616 -0.004528 0
-0.160283 -0.015258 0
-0.164800 -0.025200 0
-0.168101 -0.034236 0
-0.170134 -0.042263 0
-0.170861 -0.049191 0
-0.170267 -0.054951 0
-0.168359 -0.059496 0
-0.165173 -0.062804 0
-0.160769 -0.064883 0
-0.155233 -0.065767 0
-0.148677 -0.065520 0
-0.141227 -0.064230 0
-0.133026 -0.062005 0
-0.124223 -0.058968 0
-0.114972 -0.055252 0
-0.105421 -0.050991 0
-0.095714 -0.046320 0
-0.085984 -0.041363 0
-0.076353 -0.036236 0
-0.066928 -0.031043 0
-0.057808 -0.025872 0
-0.049077 -0.020803 0
-0.040812 -0.015906 0
-0.033086 -0.011249 0
-0.025969 -0.006905 0
-0.019532 -0.002963 0
-0.013857 0.000451 0
-0.009034 0.003158 0
-0.005153 0.004904 0
-0.002306 0.005328 0
-0.000573 0.003921 0
0.000000 -0.000000 0
0.000000 0.000000 0
-0.001269 0.026027 0
-0.004781 0.048873 0
-0.010250 0.068283 0
-0.017393 0.083949 0
-0.025927 0.095615 0
-0.035578 0.103162 0
-0.046078 0.106659 0
-0.057181 0.106368 0
-0.068663 0.102716 0
-0.080326 0.096235 0
-0.091998 0.087501 0
-0.103532 0.077074 0
-0.114794 0.065462 0
-0.125663 0.053095 0
-0.136021 0.040333 0
-0.145749 0.027469 0
-0.154726 0.014748 0
-0.162826 0.002383 0
-0.169924 -0.009439 0
-0.175909 -0.020559 0
-0.180689 -0.030846 0
-0.184184 -0.040183 0
-0.186325 -0.048464 0
-0.187061 -0.055598 0
-0.186366 -0.061512 0
-0.184242 -0.066156 0
-0.180719 -0.069508 0
-0.175860 -0.071578 0
-0.169755 -0.072403 0
-0.162520 -0.072052 0
-0.154294 -0.070620 0
-0.145227 -0.068220 0
-0.135482 -0.064984 0
-0.125222 -0.061049 0
-0.114609 -0.056554 0
-0.103799 -0.051635 0
-0.092936 -0.046418 0
-0.082154 -0.041020 0
-0.071576 -0.035541 0
-0.061314 -0.030070 0
-0.051472 -0.024683 0
-0.042148 -0.019452 0
-0.033442 -0.014448 0
-0.025457 -0.009757 0
-0.018306 -0.005491 0
-0.012116 -0.001818 0
-0.007035 0.001018 0
-0.003220 0.002648 0
-0.000828 0.002550 0
0.000000 -0.000000 0
0.000000 0.000000 0
-0.001244 0.028400 0
-0.004698 0.053336 0
-0.010090 0.074559 0
-0.017153 0.091763 0
-0.025619 0.104695 0
-0.035228 0.113247 0
-0.045733 0.117501 0
-0.056904 0.117740 0
-0.068535 0.114414 0
-0.080444 0.108083 0
-0.092473 0.099344 0
-0.104486 0.088778 0
-0.116359 0.076901 0
-0.127976 0.064152 0
-0.139224 0.050888 0
-0.149981 0.037399 0
-0.160120 0.023924 0
-0.169504 0.010670 0
-0.177990 -0.002174 0
-0.185431 -0.014435 0
-0.191703 -0.025961 0
-0.196701 -0.036628 0
-0.200326 -0.046314 0
-0.202494 -0.054909 0
-0.203140 -0.062315 0
-0.202231 -0.068451 0
-0.199760 -0.073265 0
-0.195760 -0.076732 0
-0.190294 -0.078860 0
-0.183460 -0.079692 0
-0.175384 -0.079298 0
-0.166216 -0.077780 0
-0.156121 -0.075257 0
-0.145275 -0.071864 0
-0.133856 -0.067743 0
-0.122040 -0.063037 0
-0.109998 -0.057881 0
-0.097889 -0.052402 0
-0.085863 -0.046712 0
-0.074060 -0.040907 0
-0.062614 -0.035072 0
-0.051653 -0.029278 0
-0.041307 -0.023595 0
-0.031712 -0.018100 0
-0.023019 -0.012890 0
-0.015401 -0.008113 0
-0.009054 -0.003992 0
-0.004206 -0.000879 0
-0.001106 0.000702 0
0.000000 -0.000000 0
0.000000 0.000000 0
-0.001214 0.030725 0
-0.004594 0.057720 0
-0.009882 0.080738 0
-0.016825 0.099477 0
-0.025169 0.113690 0
-0.034672 0.123277 0
-0.045102 0.128335 0
-0.056250 0.129170 0
-0.067925 0.126255 0
-0.079964 0.120173 0
-0.092225 0.111543 0
-0.104582 0.100960 0
-0.116924 0.088952 0
-0.129144 0.075960 0
-0.141135 0.062337 0
-0.152779 0.048365 0
-0.163949 0.034271 0
-0.174502 0.020253 0
-0.184283 0.006487 0
-0.193126 -0.006845 0
-0.200867 -0.019575 0
-0.207372 -0.031560 0
-0.212515 -0.042672 0
-0.216180 -0.052784 0
-0.218267 -0.061775 0
-0.218701 -0.069536 0
-0.217438 -0.075979 0
-0.214472 -0.081044 0
-0.209832 -0.084703 0
-0.203592 -0.086962 0
-0.195857 -0.087863 0
-0.186767 -0.087483 0
-0.176488 -0.085925 0
-0.165201 -0.083314 0
-0.153099 -0.079788 0
-0.140380 -0.075493 0
-0.127237 -0.070570 0
-0.113857 -0.065155 0
-0.100420 -0.059370 0
-0.087096 -0.053318 0
-0.074048 -0.047090 0
-0.061437 -0.040759 0
-0.049427 -0.034389 0
-0.038189 -0.028044 0
-0.027914 -0.021803 0
-0.018821 -0.015783 0
-0.011165 -0.010176 0
-0.005245 -0.005300 0
-0.001401 -0.001656 0
0.000000 -0.000000 0
0.000000 0.000000 0
-0.001180 0.032994 0
-0.004473 0.062004 0
-0.009636 0.086790 0
-0.016425 0.107049 0
-0.024602 0.122542 0
-0.033939 0.133181 0
-0.044222 0.139079 0
-0.055258 0.140563 0
-0.066877 0.138129 0
-0.078931 0.132382 0
-0.091294 0.123962 0
-0.103855 0.113477 0
-0.116516 0.101464 0
-0.129180 0.088363 0
-0.141749 0.074523 0
-0.154114 0.060213 0
-0.166152 0.045647 0
-0.177721 0.031004 0
-0.188662 0.016450 0
-0.198801 0.002150 0
-0.207948 -0.011715 0
-0.215922 -0.024980 0