# vtk DataFile Version 2.0
generated by CFD-lab course output (written by Tobias Neckel) 
ASCII

DATASET STRUCTURED_GRID
DIMENSIONS  51 51 1 
POINTS 2601 float

0.000000 0.000000 0
0.020000 0.000000 0
0.040000 0.000000 0
0.060000 0.000000 0
0.080000 0.000000 0
0.100000 0.000000 0
0.120000 0.000000 0
0.140000 0.000000 0
0.160000 0.000000 0
0.180000 0.000000 0
0.200000 0.000000 0
0.220000 0.000000 0
0.240000 0.000000 0
0.260000 0.000000 0
0.280000 0.000000 0
0.300000 0.000000 0
0.320000 0.000000 0
0.340000 0.000000 0
0.360000 0.000000 0
0.380000 0.000000 0
0.400000 0.000000 0
0.420000 0.000000 0
0.440000 0.000000 0
0.460000 0.000000 0
0.480000 0.000000 0
0.500000 0.000000 0
0.520000 0.000000 0
0.540000 0.000000 0
0.560000 0.000000 0
0.580000 0.000000 0
0.600000 0.000000 0
0.620000 0.000000 0
0.640000 0.000000 0
0.660000 0.000000 0
0.680000 0.000000 0
0.700000 0.000000 0
0.720000 0.000000 0
0.740000 0.000000 0
0.760000 0.000000 0
0.780000 0.000000 0
0.800000 0.000000 0
0.820000 0.000000 0
0.840000 0.000000 0
0.860000 0.000000 0
0.880000 0.000000 0
0.900000 0.000000 0
0.920000 0.000000 0
0.940000 0.000000 0
0.960000 0.000000 0
0.980000 0.000000 0
1.000000 0.000000 0
0.000000 0.020000 0
0.020000 0.020000 0
0.040000 0.020000 0
0.060000 0.020000 0
0.080000 0.020000 0
0.100000 0.020000 0
0.120000 0.020000 0
0.140000 0.020000 0
0.160000 0.020000 0
0.180000 0.020000 0
0.200000 0.020000 0
0.220000 0.020000 0
0.240000 0.020000 0
0.260000 0.020000 0
0.280000 0.020000 0
0.300000 0.020000 0
0.320000 0.020000 0
0.340000 0.020000 0
0.360000 0.020000 0
0.380000 0.020000 0
0.400000 0.020000 0
0.420000 0.020000 0
0.440000 0.020000 0
0.460000 0.020000 0
0.480000 0.020000 0
0.500000 0.020000 0
0.520000 0.020000 0
0.540000 0.020000 0
0.560000 0.020000 0
0.580000 0.020000 0
0.600000 0.020000 0
0.620000 0.020000 0
0.640000 0.020000 0
0.660000 0.020000 0
0.680000 0.020000 0
0.700000 0.020000 0
0.720000 0.020000 0
0.740000 0.020000 0
0.760000 0.020000 0
0.780000 0.020000 0
0.800000 0.020000 0
0.820000 0.020000 0
0.840000 0.020000 0
0.860000 0.020000 0
0.880000 0.020000 0
0.900000 0.020000 0
0.920000 0.020000 0
0.940000 0.020000 0
0.960000 0.020000 0
0.980000 0.020000 0
1.000000 0.020000 0
0.000000 0.040000 0
0.020000 0.040000 0
0.040000 0.040000 0
0.060000 0.040000 0
0.080000 0.040000 0
0.100000 0.040000 0
0.120000 0.040000 0
0.140000 0.040000 0
0.160000 0.040000 0
0.180000 0.040000 0
0.200000 0.040000 0
0.220000 0.040000 0
0.240000 0.040000 0
0.260000 0.040000 0
0.280000 0.040000 0
0.300000 0.040000 0
0.320000 0.040000 0
0.340000 0.040000 0
0.360000 0.040000 0
0.380000 0.040000 0
0.400000 0.040000 0
0.420000 0.040000 0
0.440000 0.040000 0
0.460000 0.040000 0
0.480000 0.040000 0
0.500000 0.040000 0
0.520000 0.040000 0
0.540000 0.040000 0
0.560000 0.040000 0
0.580000 0.040000 0
0.600000 0.040000 0
0.620000 0.040000 0
0.640000 0.040000 0
0.660000 0.040000 0
0.680000 0.040000 0
0.700000 0.040000 0
0.720000 0.040000 0
0.740000 0.040000 0
0.760000 0.040000 0
0.780000 0.040000 0
0.800000 0.040000 0
0.820000 0.040000 0
0.840000 0.040000 0
0.860000 0.040000 0
0.880000 0.040000 0
0.900000 0.040000 0
0.920000 0.040000 0
0.940000 0.040000 0
0.960000 0.040000 0
0.980000 0.040000 0
1.000000 0.040000 0
0.000000 0.060000 0
0.020000 0.060000 0
0.040000 0.060000 0
0.060000 0.060000 0
0.080000 0.060000 0
0.100000 0.060000 0
0.120000 0.060000 0
0.140000 0.060000 0
0.160000 0.060000 0
0.180000 0.060000 0
0.200000 0.060000 0
0.220000 0.060000 0
0.240000 0.060000 0
0.260000 0.060000 0
0.280000 0.060000 0
0.300000 0.060000 0
0.320000 0.060000 0
0.340000 0.060000 0
0.360000 0.060000 0
0.380000 0.060000 0
0.400000 0.060000 0
0.420000 0.060000 0
0.440000 0.060000 0
0.460000 0.060000 0
0.480000 0.060000 0
0.500000 0.060000 0
0.520000 0.060000 0
0.540000 0.060000 0
0.560000 0.060000 0
0.580000 0.060000 0
0.600000 0.060000 0
0.620000 0.060000 0
0.640000 0.060000 0
0.660000 0.060000 0
0.680000 0.060000 0
0.700000 0.060000 0
0.720000 0.060000 0
0.740000 0.060000 0
0.760000 0.060000 0
0.780000 0.060000 0
0.800000 0.060000 0
0.820000 0.060000 0
0.840000 0.060000 0
0.860000 0.060000 0
0.880000 0.060000 0
0.900000 0.060000 0
0.920000 0.060000 0
0.940000 0.060000 0
0.960000 0.060000 0
0.980000 0.060000 0
1.000000 0.060000 0
0.000000 0.080000 0
0.020000 0.080000 0
0.040000 0.080000 0
0.060000 0.080000 0
0.080000 0.080000 0
0.100000 0.080000 0
0.120000 0.080000 0
0.140000 0.080000 0
0.160000 0.080000 0
0.180000 0.080000 0
0.200000 0.080000 0
0.220000 0.080000 0
0.240000 0.080000 0
0.260000 0.080000 0
0.280000 0.080000 0
0.300000 0.080000 0
0.320000 0.080000 0
0.340000 0.080000 0
0.360000 0.080000 0
0.380000 0.080000 0
0.400000 0.080000 0
0.420000 0.080000 0
0.440000 0.080000 0
0.460000 0.080000 0
0.480000 0.080000 0
0.500000 0.080000 0
0.520000 0.080000 0
0.540000 0.080000 0
0.560000 0.080000 0
0.580000 0.080000 0
0.600000 0.080000 0
0.620000 0.080000 0
0.640000 0.080000 0
0.660000 0.080000 0
0.680000 0.080000 0
0.700000 0.080000 0
0.720000 0.080000 0
0.740000 0.080000 0
0.760000 0.080000 0
0.780000 0.080000 0
0.800000 0.080000 0
0.820000 0.080000 0
0.840000 0.080000 0
0.860000 0.080000 0
0.880000 0.080000 0
0.900000 0.080000 0
0.920000 0.080000 0
0.940000 0.080000 0
0.960000 0.080000 0
0.980000 0.080000 0
1.000000 0.080000 0
0.000000 0.100000 0
0.020000 0.100000 0
0.040000 0.100000 0
0.060000 0.100000 0
0.080000 0.100000 0
0.100000 0.100000 0
0.120000 0.100000 0
0.140000 0.100000 0
0.160000 0.100000 0
0.180000 0.100000 0
0.200000 0.100000 0
0.220000 0.100000 0
0.240000 0.100000 0
0.260000 0.100000 0
0.280000 0.100000 0
0.300000 0.100000 0
0.320000 0.100000 0
0.340000 0.100000 0
0.360000 0.100000 0
0.380000 0.100000 0
0.400000 0.100000 0
0.420000 0.100000 0
0.440000 0.100000 0
0.460000 0.100000 0
0.480000 0.100000 0
0.500000 0.100000 0
0.520000 0.100000 0
0.540000 0.100000 0
0.560000 0.100000 0
0.580000 0.100000 0
0.600000 0.100000 0
0.620000 0.100000 0
0.640000 0.100000 0
0.660000 0.100000 0
0.680000 0.100000 0
0.700000 0.100000 0
0.720000 0.100000 0
0.740000 0.100000 0
0.760000 0.100000 0
0.780000 0.100000 0
0.800000 0.100000 0
0.820000 0.100000 0
0.840000 0.100000 0
0.860000 0.100000 0
0.880000 0.100000 0
0.900000 0.100000 0
0.920000 0.100000 0
0.940000 0.100000 0
0.960000 0.100000 0
0.980000 0.100000 0
1.000000 0.100000 0
0.000000 0.120000 0
0.020000 0.120000 0
0.040000 0.120000 0
0.060000 0.120000 0
0.080000 0.120000 0
0.100000 0.120000 0
0.120000 0.120000 0
0.140000 0.120000 0
0.160000 0.120000 0
0.180000 0.120000 0
0.200000 0.120000 0
0.220000 0.120000 0
0.240000 0.120000 0
0.260000 0.120000 0
0.280000 0.120000 0
0.300000 0.120000 0
0.320000 0.120000 0
0.340000 0.120000 0
0.360000 0.120000 0
0.380000 0.120000 0
0.400000 0.120000 0
0.420000 0.120000 0
0.440000 0.120000 0
0.460000 0.120000 0
0.480000 0.120000 0
0.500000 0.120000 0
0.520000 0.120000 0
0.540000 0.120000 0
0.560000 0.120000 0
0.580000 0.120000 0
0.600000 0.120000 0
0.620000 0.120000 0
0.640000 0.120000 0
0.660000 0.120000 0
0.680000 0.120000 0
0.700000 0.120000 0
0.720000 0.120000 0
0.740000 0.120000 0
0.760000 0.120000 0
0.780000 0.120000 0
0.800000 0.120000 0
0.820000 0.120000 0
0.840000 0.120000 0
0.860000 0.120000 0
0.880000 0.120000 0
0.900000 0.120000 0
0.920000 0.120000 0
0.940000 0.120000 0
0.960000 0.120000 0
0.980000 0.120000 0
1.000000 0.120000 0
0.000000 0.140000 0
0.020000 0.140000 0
0.040000 0.140000 0
0.060000 0.140000 0
0.080000 0.140000 0
0.100000 0.140000 0
0.120000 0.140000 0
0.140000 0.140000 0
0.160000 0.140000 0
0.180000 0.140000 0
0.200000 0.140000 0
0.220000 0.140000 0
0.240000 0.140000 0
0.260000 0.140000 0
0.280000 0.140000 0
0.300000 0.140000 0
0.320000 0.140000 0
0.340000 0.140000 0
0.360000 0.140000 0
0.380000 0.140000 0
0.400000 0.140000 0
0.420000 0.140000 0
0.440000 0.140000 0
0.460000 0.140000 0
0.480000 0.140000 0
0.500000 0.140000 0
0.520000 0.140000 0
0.540000 0.140000 0
0.560000 0.140000 0
0.580000 0.140000 0
0.600000 0.140000 0
0.620000 0.140000 0
0.640000 0.140000 0
0.660000 0.140000 0
0.680000 0.140000 0
0.700000 0.140000 0
0.720000 0.140000 0
0.740000 0.140000 0
0.760000 0.140000 0
0.780000 0.140000 0
0.800000 0.140000 0
0.820000 0.140000 0
0.840000 0.140000 0
0.860000 0.140000 0
0.880000 0.140000 0
0.900000 0.140000 0
0.920000 0.140000 0
0.940000 0.140000 0
0.960000 0.140000 0
0.980000 0.140000 0
1.000000 0.140000 0
0.000000 0.160000 0
0.020000 0.160000 0
0.040000 0.160000 0
0.060000 0.160000 0
0.080000 0.160000 0
0.100000 0.160000 0
0.120000 0.160000 0
0.140000 0.160000 0
0.160000 0.160000 0
0.180000 0.160000 0
0.200000 0.160000 0
0.220000 0.160000 0
0.240000 0.160000 0
0.260000 0.160000 0
0.280000 0.160000 0
0.300000 0.160000 0
0.320000 0.160000 0
0.340000 0.160000 0
0.360000 0.160000 0
0.380000 0.160000 0
0.400000 0.160000 0
0.420000 0.160000 0
0.440000 0.160000 0
0.460000 0.160000 0
0.480000 0.160000 0
0.500000 0.160000 0
0.520000 0.160000 0
0.540000 0.160000 0
0.560000 0.160000 0
0.580000 0.160000 0
0.600000 0.160000 0
0.620000 0.160000 0
0.640000 0.160000 0
0.660000 0.160000 0
0.680000 0.160000 0
0.700000 0.160000 0
0.720000 0.160000 0
0.740000 0.160000 0
0.760000 0.160000 0
0.780000 0.160000 0
0.800000 0.160000 0
0.820000 0.160000 0
0.840000 0.160000 0
0.860000 0.160000 0
0.880000 0.160000 0
0.900000 0.160000 0
0.920000 0.160000 0
0.940000 0.160000 0
0.960000 0.160000 0
0.980000 0.160000 0
1.000000 0.160000 0
0.000000 0.180000 0
0.020000 0.180000 0
0.040000 0.180000 0
0.060000 0.180000 0
0.080000 0.180000 0
0.100000 0.180000 0
0.120000 0.180000 0
0.140000 0.180000 0
0.160000 0.180000 0
0.180000 0.180000 0
0.200000 0.180000 0
0.220000 0.180000 0
0.240000 0.180000 0
0.260000 0.180000 0
0.280000 0.180000 0
0.300000 0.180000 0
0.320000 0.180000 0
0.340000 0.180000 0
0.360000 0.180000 0
0.380000 0.180000 0
0.400000 0.180000 0
0.420000 0.180000 0
0.440000 0.180000 0
0.460000 0.180000 0
0.480000 0.180000 0
0.500000 0.180000 0
0.520000 0.180000 0
0.540000 0.180000 0
0.560000 0.180000 0
0.580000 0.180000 0
0.600000 0.180000 0
0.620000 0.180000 0
[...]
POINT_DATA 2601 

VECTORS velocity float
0.000000 0.000000 0
0.000000 0.000000 0
0.000001 0.000000 0
0.000000 0.000000 0
-0.000000 0.000000 0
-0.000000 0.000000 0
-0.000000 0.000000 0
-0.000000 0.000000 0
0.000000 0.000000 0
0.000000 0.000000 0
0.000000 0.000000 0
-0.000000 0.000000 0
-0.000000 0.000000 0
-0.000000 0.000000 0
-0.000000 0.000000 0
-0.000000 0.000000 0
0.000000 0.000000 0
0.000000 0.000000 0
0.000000 0.000000 0
0.000000 0.000000 0
-0.000000 0.000000 0
-0.000000 0.000000 0
-0.000000 0.000000 0
-0.000000 0.000000 0
-0.000000 0.000000 0
0.000000 0.000000 0
0.000000 0.000000 0
0.000000 0.000000 0
0.000000 0.000000 0
0.000000 0.000000 0
-0.000000 0.000000 0
-0.000000 0.000000 0
-0.000000 0.000000 0
-0.000000 0.000000 0
-0.000000 0.000000 0
-0.000000 0.000000 0
0.000000 0.000000 0
0.000000 0.000000 0
0.000000 0.000000 0
0.000000 0.000000 0
0.000000 0.000000 0
0.000000 0.000000 0
-0.000000 0.000000 0
-0.000000 0.000000 0
-0.000000 0.000000 0
-0.000000 0.000000 0
0.000000 0.000000 0
0.000000 0.000000 0
0.000000 0.000000 0
0.000000 0.000000 0
0.000000 0.000000 0
0.000000 0.000000 0
-0.000006 0.000011 0
-0.000356 0.000249 0
-0.001134 0.000513 0
-0.002303 0.000732 0
-0.003770 0.000881 0
-0.005416 0.000953 0
-0.007117 0.000948 0
-0.008755 0.000876 0
-0.010225 0.000748 0
-0.011444 0.000578 0
-0.012353 0.000383 0
-0.012917 0.000176 0
-0.013123 -0.000030 0
-0.012976 -0.000227 0
-0.012496 -0.000406 0
-0.011716 -0.000562 0
-0.010674 -0.000692 0
-0.009415 -0.000794 0
-0.007988 -0.000867 0
-0.006441 -0.000912 0
-0.004822 -0.000931 0
-0.003175 -0.000925 0
-0.001544 -0.000897 0
0.000036 -0.000849 0
0.001530 -0.000786 0
0.002910 -0.000710 0
0.004157 -0.000624 0
0.005253 -0.000533 0
0.006187 -0.000438 0
0.006955 -0.000342 0
0.007554 -0.000247 0
0.007985 -0.000154 0
0.008254 -0.000066 0
0.008367 0.000017 0
0.008333 0.000095 0
0.008163 0.000167 0
0.007866 0.000232 0
0.007453 0.000292 0
0.006935 0.000346 0
0.006324 0.000393 0
0.005632 0.000434 0
0.004873 0.000466 0
0.004065 0.000488 0
0.003230 0.000494 0
0.002400 0.000479 0
0.001614 0.000435 0
0.000923 0.000352 0
0.000390 0.000226 0
0.000074 0.000074 0
0.000000 0.000000 0
0.000000 0.000001 0
-0.000229 0.000357 0
-0.001098 0.001129 0
-0.002649 0.001946 0
-0.004815 0.002634 0
-0.007454 0.003112 0
-0.010386 0.003348 0
-0.013411 0.003340 0
-0.016337 0.003108 0
-0.018991 0.002689 0
-0.021232 0.002128 0
-0.022956 0.001473 0
-0.024099 0.000769 0
-0.024630 0.000059 0
-0.024552 -0.000626 0
-0.023890 -0.001260 0
-0.022692 -0.001823 0
-0.021019 -0.002300 0
-0.018944 -0.002685 0
-0.016545 -0.002974 0
-0.013903 -0.003167 0
-0.011100 -0.003266 0
-0.008216 -0.003278 0
-0.005324 -0.003211 0
-0.002492 -0.003073 0
0.000220 -0.002875 0
0.002759 -0.002627 0
0.005081 -0.002342 0
0.007154 -0.002031 0
0.008956 -0.001702 0
0.010470 -0.001366 0
0.011690 -0.001030 0
0.012616 -0.000700 0
0.013252 -0.000382 0
0.013608 -0.000080 0
0.013697 0.000204 0
0.013537 0.000468 0
0.013144 0.000710 0
0.012538 0.000930 0
0.011738 0.001129 0
0.010766 0.001303 0
0.009645 0.001451 0
0.008401 0.001567 0
0.007067 0.001643 0
0.005682 0.001665 0
0.004297 0.001617 0
0.002976 0.001476 0
0.001798 0.001223 0
0.000852 0.000849 0
0.000228 0.000390 0
0.000000 0.000000 0
0.000000 0.000000 0
-0.000476 0.001109 0
-0.001883 0.002667 0
-0.004170 0.004229 0
-0.007221 0.005537 0
-0.010858 0.006453 0
-0.014858 0.006910 0
-0.018979 0.006900 0
-0.022982 0.006456 0
-0.026650 0.005643 0
-0.029802 0.004544 0
-0.032302 0.003250 0
-0.034060 0.001850 0
-0.035030 0.000423 0
-0.035204 -0.000966 0
-0.034610 -0.002265 0
-0.033296 -0.003433 0
-0.031335 -0.004440 0
-0.028812 -0.005268 0
-0.025823 -0.005908 0
-0.022470 -0.006357 0
-0.018856 -0.006618 0
-0.015084 -0.006702 0
-0.011252 -0.006621 0
-0.007450 -0.006393 0
-0.003763 -0.006036 0
-0.000263 -0.005571 0
0.002989 -0.005020 0
0.005939 -0.004408 0
0.008551 -0.003754 0
0.010798 -0.003076 0
0.012664 -0.002392 0
0.014145 -0.001716 0
0.015241 -0.001058 0
0.015963 -0.000428 0
0.016322 0.000166 0
0.016340 0.000720 0
0.016038 0.001231 0
0.015441 0.001698 0
0.014576 0.002117 0
0.013471 0.002486 0
0.012157 0.002799 0
0.010671 0.003045 0
0.009053 0.003207 0
0.007356 0.003264 0
0.005640 0.003184 0
0.003983 0.002933 0
0.002477 0.002476 0
0.001228 0.001796 0
0.000356 0.000926 0
0.000000 -0.000000 0
0.000000 -0.000000 0
-0.000691 0.002239 0
-0.002586 0.004821 0
-0.005540 0.007284 0
-0.009383 0.009324 0
-0.013896 0.010751 0
-0.018827 0.011470 0
-0.023903 0.011463 0
-0.028856 0.010778 0
-0.033441 0.009508 0
-0.037450 0.007780 0
-0.040723 0.005731 0
-0.043150 0.003497 0
-0.044670 0.001204 0
-0.045265 -0.001046 0
-0.044954 -0.003168 0
-0.043784 -0.005097 0
-0.041827 -0.006785 0
-0.039173 -0.008197 0
-0.035924 -0.009316 0
-0.032191 -0.010134 0
-0.028089 -0.010652 0
-0.023736 -0.010883 0
-0.019246 -0.010845 0
-0.014726 -0.010562 0
-0.010278 -0.010063 0
-0.005993 -0.009379 0
-0.001947 -0.008544 0
0.001790 -0.007593 0
0.005165 -0.006561 0
0.008135 -0.005480 0
0.010676 -0.004377 0
0.012772 -0.003277 0
0.014419 -0.002199 0
0.015622 -0.001161 0
0.016393 -0.000174 0
0.016749 0.000752 0
0.016714 0.001609 0
0.016316 0.002393 0
0.015586 0.003099 0
0.014557 0.003722 0
0.013266 0.004251 0
0.011755 0.004671 0
0.010069 0.004958 0
0.008267 0.005078 0
0.006414 0.004989 0
0.004595 0.004640 0
0.002907 0.003979 0
0.001473 0.002970 0
0.000439 0.001618 0
0.000000 -0.000000 0
0.000000 -0.000000 0
-0.000862 0.003693 0
-0.003174 0.007516 0
-0.006713 0.011027 0
-0.011255 0.013895 0
-0.016547 0.015898 0
-0.022308 0.016917 0
-0.028246 0.016928 0
-0.034070 0.015993 0
-0.039518 0.014236 0
-0.044365 0.011826 0
-0.048432 0.008951 0
-0.051593 0.005798 0
-0.053773 0.002537 0
-0.054941 -0.000683 0
-0.055106 -0.003746 0
-0.054308 -0.006559 0
-0.052613 -0.009051 0
-0.050105 -0.011172 0
-0.046885 -0.012890 0
-0.043064 -0.014191 0
-0.038763 -0.015072 0
-0.034104 -0.015545 0
-0.029209 -0.015631 0
-0.024198 -0.015360 0
-0.019186 -0.014770 0
-0.014276 -0.013902 0
-0.009563 -0.012803 0
-0.005128 -0.011519 0
-0.001040 -0.010099 0
0.002646 -0.008588 0
0.005888 -0.007029 0
0.008658 -0.005459 0
0.010942 -0.003908 0
0.012739 -0.002402 0
0.014054 -0.000961 0
0.014901 0.000399 0
0.015301 0.001664 0
0.015283 0.002826 0
0.014877 0.003876 0
0.014120 0.004806 0
0.013051 0.005602 0
0.011714 0.006242 0
0.010157 0.006695 0
0.008440 0.006919 0
0.006629 0.006856 0
0.004809 0.006440 0
0.003084 0.005598 0
0.001583 0.004265 0
0.000478 0.002398 0
0.000000 -0.000000 0
0.000000 -0.000000 0
-0.000996 0.005412 0
-0.003651 0.010672 0
-0.007689 0.015367 0
-0.012840 0.019158 0
-0.018821 0.021804 0
-0.025329 0.023168 0
-0.032055 0.023225 0
-0.038696 0.022051 0
-0.044975 0.019803 0
-0.050655 0.016693 0
-0.055547 0.012959 0
-0.059509 0.008839 0
-0.062454 0.004551 0
-0.064336 0.000287 0
-0.065151 -0.003801 0
-0.064929 -0.007590 0
-0.063723 -0.010988 0
-0.061608 -0.013925 0
-0.058676 -0.016356 0
-0.055032 -0.018255 0
-0.050791 -0.019613 0
-0.046076 -0.020437 0
-0.041011 -0.020750 0
-0.035721 -0.020585 0
-0.030329 -0.019985 0
-0.024949 -0.019002 0
-0.019689 -0.017692 0
-0.014643 -0.016116 0
-0.009895 -0.014335 0
-0.005514 -0.012407 0
-0.001555 -0.010389 0
0.001938 -0.008331 0
0.004940 -0.006281 0
0.007435 -0.004272 0
0.009420 -0.002336 0
0.010904 -0.000496 0
0.011901 0.001227 0
0.012433 0.002817 0
0.012532 0.004262 0
0.012232 0.005548 0
0.011573 0.006658 0
0.010598 0.007565 0
0.009356 0.008232 0
0.007902 0.008607 0
0.006302 0.008619 0
0.004640 0.008185 0
0.003017 0.007204 0
0.001569 0.005576 0
0.000480 0.003201 0
0.000000 0.000000 0
0.000000 -0.000000 0
-0.001098 0.007344 0
-0.004029 0.014210 0
-0.008482 0.020216 0
-0.014155 0.025027 0
-0.020740 0.028386 0
-0.027918 0.030150 0
-0.035367 0.030295 0
-0.042776 0.028913 0
-0.049860 0.026196 0
-0.056375 0.022398 0
-0.062119 0.017805 0
-0.066944 0.012705 0
-0.070747 0.007364 0
-0.073468 0.002014 0
-0.075089 -0.003153 0
-0.075623 -0.007988 0
-0.075110 -0.012372 0
-0.073609 -0.016219 0
-0.071198 -0.019466 0
-0.067970 -0.022075 0
-0.064030 -0.024028 0
-0.059492 -0.025326 0
-0.054478 -0.025986 0
-0.049111 -0.026042 0
-0.043519 -0.025542 0
-0.037822 -0.024542 0
-0.032137 -0.023109 0
-0.026572 -0.021313 0
-0.021223 -0.019228 0
-0.016175 -0.016928 0
-0.011498 -0.014481 0
-0.007247 -0.011954 0
-0.003465 -0.009405 0
-0.000182 -0.006882 0
0.002589 -0.004429 0
0.004843 -0.002082 0
0.006588 0.000135 0
0.007837 0.002195 0
0.008613 0.004077 0
0.008948 0.005765 0
0.008880 0.007236 0
0.008447 0.008459 0
0.007696 0.009392 0
0.006679 0.009972 0
0.005455 0.010118 0
0.004103 0.009726 0
0.002720 0.008669 0
0.001440 0.006802 0
0.000448 0.003968 0
0.000000 0.000000 0
0.000000 0.000000 0
-0.001174 0.009442 0
-0.004323 0.018057 0
-0.009114 0.025493 0
-0.015224 0.031416 0
-0.022330 0.035566 0
-0.030100 0.037794 0
-0.038207 0.038082 0
-0.046334 0.036544 0
-0.054194 0.033402 0
-0.061535 0.028952 0
-0.068153 0.023529 0
-0.073888 0.017466 0
-0.078625 0.011075 0
-0.082292 0.004629 0
-0.084852 -0.001646 0
-0.086300 -0.007570 0
-0.086659 -0.013002 0
-0.085969 -0.017837 0
-0.084290 -0.021995 0
-0.081696 -0.025423 0
-0.078278 -0.028091 0
-0.074137 -0.029990 0
-0.069385 -0.031131 0
-0.064140 -0.031544 0
-0.058526 -0.031274 0
-0.052669 -0.030383 0
-0.046690 -0.028942 0
-0.040707 -0.027030 0
-0.034829 -0.024732 0
-0.029154 -0.022133 0
-0.023769 -0.019317 0
-0.018744 -0.016364 0
-0.014138 -0.013346 0
-0.009995 -0.010326 0
-0.006343 -0.007361 0
-0.003200 -0.004495 0
-0.000572 -0.001767 0
0.001547 0.000793 0
0.003167 0.003150 0
0.004310 0.005281 0
0.005006 0.007158 0
0.005291 0.008748 0
0.005204 0.010001 0
0.004791 0.010848 0
0.004105 0.011195 0
0.003213 0.010920 0
0.002204 0.009867 0
0.001204 0.007847 0
0.000386 0.004642 0
0.000000 0.000000 0
0.000000 0.000000 0
-0.001230 0.011668 0
-0.004545 0.022150 0
-0.009601 0.031117 0
-0.016068 0.038242 0
-0.023612 0.043262 0
-0.031897 0.046028 0
-0.040592 0.046529 0
-0.049381 0.044900 0
-0.057977 0.041397 0
-0.066126 0.036357 0
-0.073621 0.030157 0
-0.080294 0.023177 0
-0.086022 0.015768 0
-0.090717 0.008240 0
-0.094324 0.000855 0
-0.096818 -0.006180 0
-0.098201 -0.012704 0
-0.098494 -0.018588 0
-0.097733 -0.023739 0
-0.095973 -0.028086 0
-0.093283 -0.031587 0
-0.089746 -0.034219 0
-0.085459 -0.035983 0
-0.080531 -0.036901 0
-0.075078 -0.037013 0
-0.069223 -0.036378 0
-0.063091 -0.035071 0
-0.056806 -0.033174 0
-0.050487 -0.030781 0
-0.044245 -0.027988 0
-0.038181 -0.024892 0
-0.032383 -0.021585 0
-0.026926 -0.018154 0
-0.021871 -0.014677 0
-0.017262 -0.011224 0
-0.013134 -0.007853 0
-0.009504 -0.004613 0
-0.006382 -0.001544 0
-0.003766 0.001314 0
-0.001652 0.003926 0
-0.000022 0.006254 0
0.001151 0.008261 0
0.001898 0.009891 0
0.002256 0.011071 0
0.002265 0.011697 0
0.001981 0.011627 0
0.001479 0.010678 0
0.000865 0.008620 0
0.000296 0.005171 0
0.000000 -0.000000 0
0.000000 0.000000 0
-0.001268 0.013987 0
-0.004703 0.026429 0
-0.009961 0.037016 0
-0.016707 0.045426 0
-0.024607 0.051395 0
-0.033327 0.054775 0
-0.042535 0.055567 0
-0.051922 0.053929 0
-0.061201 0.050146 0
-0.070122 0.044596 0
-0.078477 0.037697 0
-0.086095 0.029868 0
-0.092842 0.021498 0
-0.098619 0.012931 0
-0.103353 0.004455 0
-0.106996 -0.003692 0
-0.109530 -0.011327 0
-0.110950 -0.018305 0
-0.111270 -0.024516 0
-0.110520 -0.029873 0
-0.108745 -0.034318 0
-0.106007 -0.037813 0
-0.102382 -0.040346 0
-0.097964 -0.041925 0
-0.092856 -0.042582 0
-0.087174 -0.042370 0
-0.081043 -0.041359 0
-0.074587 -0.039634 0
-0.067934 -0.037293 0
-0.061204 -0.034439 0
-0.054513 -0.031179 0
-0.047966 -0.027619 0
-0.041654 -0.023858 0
-0.035656 -0.019990 0
-0.030035 -0.016097 0
-0.024843 -0.012253 0
-0.020115 -0.008519 0
-0.015875 -0.004946 0
-0.012135 -0.001579 0
-0.008902 0.001537 0
-0.006178 0.004355 0
-0.003953 0.006828 0
-0.002207 0.008896 0
-0.000917 0.010481 0
-0.000056 0.011470 0
0.000414 0.011706 0
0.000547 0.010983 0
0.000426 0.009030 0
0.000178 0.005506 0
0.000000 -0.000000 0
0.000000 0.000000 0
-0.001291 0.016371 0
-0.004805 0.030842 0
-0.010205 0.043121 0
-0.017159 0.052889 0
-0.025336 0.059882 0
-0.034407 0.063956 0
-0.044049 0.065124 0
-0.053958 0.063566 0
-0.063855 0.059598 0
-0.073496 0.053633 0
-0.082673 0.046130 0
-0.091214 0.037542 0
-0.098982 0.028292 0
-0.105864 0.018751 0
-0.111772 0.009232 0
-0.116639 -0.000004 0
-0.120416 -0.008750 0
-0.123078 -0.016848 0
-0.124613 -0.024168 0
-0.125026 -0.030611 0
-0.124335 -0.036100 0
-0.122574 -0.040582 0
-0.119798 -0.044027 0
-0.116078 -0.046427 0
-0.111501 -0.047802 0
-0.106171 -0.048191 0
-0.100205 -0.047658 0
-0.093726 -0.046283 0
-0.086864 -0.044164 0
-0.079749 -0.041408 0
-0.072507 -0.038130 0
-0.065259 -0.034444 0
-0.058113 -0.030464 0
-0.051166 -0.026295 0
-0.044503 -0.022037 0
-0.038191 -0.017774 0
-0.032288 -0.013581 0
-0.026834 -0.009524 0
-0.021859 -0.005658 0
-0.017385 -0.002031 0
-0.013426 0.001305 0
-0.009993 0.004289 0
-0.007092 0.006856 0
-0.004714 0.008920 0
-0.002849 0.010365 0
-0.001483 0.011023 0
-0.000588 0.010667 0
-0.000113 0.008989 0
0.000032 0.005597 0
0.000000 -0.000000 0
0.000000 -0.000000 0
-0.001301 0.018792 0
-0.004859 0.035342 0
-0.010346 0.049369 0
-0.017439 0.060557 0
-0.025816 0.068643 0
-0.035155 0.073488 0
-0.045147 0.075118 0
-0.055495 0.073735 0
-0.065932 0.069684 0
-0.076222 0.063414 0
-0.086162 0.055415 0
-0.095582 0.046177 0
-0.104340 0.036147 0
-0.112317 0.025721 0
-0.119412 0.015230 0
-0.125538 0.004952 0
-0.130620 -0.004888 0
-0.134608 -0.014108 0
-0.137464 -0.022567 0
-0.139164 -0.030152 0
-0.139700 -0.036770 0
-0.139078 -0.042350 0
-0.137324 -0.046842 0
-0.134483 -0.050222 0
-0.130622 -0.052489 0
-0.125826 -0.053666 0
-0.120199 -0.053805 0
-0.113858 -0.052975 0
-0.106932 -0.051270 0
-0.099555 -0.048795 0
-0.091863 -0.045669 0
-0.083987 -0.042013 0
-0.076054 -0.037950 0
-0.068180 -0.033600 0
-0.060468 -0.029072 0
-0.053007 -0.024468 0
-0.045875 -0.019876 0
-0.039133 -0.015374 0
-0.032833 -0.011028 0
-0.027013 -0.006897 0
-0.021704 -0.003036 0
-0.016934 0.000494 0
-0.012730 0.003617 0
-0.009115 0.006239 0
-0.006103 0.008239 0
-0.003705 0.009445 0
-0.001924 0.009613 0
-0.000751 0.008410 0
-0.000142 0.005393 0
0.000000 -0.000000 0
0.000000 -0.000000 0
-0.001300 0.021230 0
-0.004870 0.039887 0
-0.010396 0.055701 0
-0.017564 0.068359 0
-0.026066 0.077599 0
-0.035593 0.083287 0
-0.045846 0.085464 0
-0.056544 0.084351 0
-0.067433 0.080325 0
-0.078286 0.073863 0
-0.088910 0.065490 0
-0.099138 0.055720 0
-0.108828 0.045027 0
-0.117857 0.033823 0
-0.126113 0.022452 0
-0.133496 0.011204 0
-0.139911 0.000320 0
-0.145274 -0.010004 0
-0.149522 -0.019612 0
-0.152604 -0.028375 0
-0.154484 -0.036186 0
-0.155138 -0.042958 0
-0.154561 -0.048622 0
-0.152769 -0.053130 0
-0.149802 -0.056459 0
-0.145723 -0.058615 0
-0.140616 -0.059626 0
-0.134587 -0.059550 0
-0.127757 -0.058467 0
-0.120261 -0.056478 0
-0.112240 -0.053698 0
-0.103836 -0.050252 0
-0.095190 -0.046271 0
-0.086436 -0.041882 0
-0.077696 -0.037209 0
-0.069083 -0.032366 0
-0.060694 -0.027455 0
-0.052615 -0.022567 0
-0.044919 -0.017779 0
-0.037666 -0.013160 0
-0.030911 -0.008774 0
-0.024699 -0.004684 0
-0.019076 -0.000963 0
-0.014093 0.002294 0
-0.009798 0.004954 0
-0.006238 0.006844 0
-0.003456 0.007713 0
-0.001487 0.007207 0
-0.000345 0.004846 0
0.000000 -0.000000 0
0.000000 0.000000 0
-0.001289 0.023663 0
-0.004844 0.044438 0
-0.010364 0.062063 0
-0.017551 0.076228 0
-0.026107 0.086671 0
-0.035740 0.093267 0
-0.046167 0.096070 0
-0.057123 0.095322 0
-0.068366 0.091426 0
-0.079685 0.084891 0
-0.090895 0.076267 0
-0.101838 0.066095 0
-0.112375 0.054867 0
-0.122382 0.043006 0
-0.131742 0.030869 0
-0.140342 0.018749 0
-0.148072 0.006891 0
-0.154823 -0.004497 0
-0.160500 -0.015237 0
-0.165025 -0.025190 0
-0.168334 -0.034236 0
-0.170373 -0.042273 0
-0.171106 -0.049211 0
-0.170516 -0.054981 0
-0.168611 -0.059535 0
-0.165426 -0.062853 0
-0.161022 -0.064941 0
-0.155485 -0.065834 0
-0.148926 -0.065595 0
-0.141471 -0.064313 0
-0.133264 -0.062094 0
-0.124454 -0.059063 0
-0.115193 -0.055351 0
-0.105632 -0.051094 0
-0.095913 -0.046425 0
-0.086170 -0.041470 0
-0.076524 -0.036344 0
-0.067085 -0.031149 0
-0.057948 -0.025977 0
-0.049201 -0.020905 0
-0.040921 -0.016003 0
-0.033178 -0.011340 0
-0.026045 -0.006989 0
-0.019592 -0.003040 0
-0.013902 0.000384 0
-0.009064 0.003103 0
-0.005172 0.004862 0
-0.002315 0.005299 0
-0.000575 0.003907 0
0.000000 -0.000000 0
0.000000 0.000000 0
-0.001271 0.026074 0
-0.004787 0.048962 0
-0.010263 0.068408 0
-0.017415 0.084102 0
-0.025961 0.095788 0
-0.035624 0.103346 0
-0.046138 0.106846 0
-0.057255 0.106550 0
-0.068751 0.102887 0
-0.080428 0.096392 0
-0.092115 0.087643 0
-0.103662 0.077200 0
-0.114937 0.065571 0
-0.125819 0.053189 0
-0.136189 0.040412 0
-0.145928 0.027535 0
-0.154916 0.014802 0
-0.163026 0.002424 0
-0.170134 -0.009410 0
-0.176127 -0.020540 0
-0.180915 -0.030839 0
-0.184416 -0.040187 0
-0.186562 -0.048479 0
-0.187303 -0.055624 0
-0.186612 -0.061549 0
-0.184490 -0.066204 0
-0.180968 -0.069567 0
-0.176108 -0.071646 0
-0.170001 -0.072481 0
-0.162763 -0.072139 0
-0.154531 -0.070715 0
-0.145458 -0.068323 0
-0.135704 -0.065093 0
-0.125434 -0.061162 0
-0.114810 -0.056671 0
-0.103987 -0.051755 0
-0.093110 -0.046540 0
-0.082314 -0.041142 0
-0.071721 -0.035662 0
-0.061442 -0.030188 0
-0.051583 -0.024797 0
-0.042243 -0.019560 0
-0.033521 -0.014549 0
-0.025520 -0.009849 0
-0.018353 -0.005573 0
-0.012149 -0.001886 0
-0.007056 0.000964 0
-0.003230 0.002611 0
-0.000831 0.002531 0
0.000000 -0.000000 0
0.000000 0.000000 0
-0.001245 0.028450 0
-0.004703 0.053430 0
-0.010103 0.074691 0
-0.017174 0.091925 0
-0.025650 0.104880 0
-0.035270 0.113444 0
-0.045788 0.117701 0
-0.056972 0.117936 0
-0.068616 0.114600 0
-0.080539 0.108255 0
-0.092581 0.099500 0
-0.104607 0.088917 0
-0.116493 0.077023 0
-0.128122 0.064258 0
-0.139381 0.050979 0
-0.150149 0.037476 0
-0.160299 0.023988 0
-0.169693 0.010721 0
-0.178188 -0.002136 0
-0.185637 -0.014408 0
-0.191917 -0.025947 0
-0.196922 -0.036625 0
-0.200553 -0.046324 0
-0.202725 -0.054931 0
-0.203376 -0.062348 0
-0.202468 -0.068497 0
-0.199999 -0.073323 0
-0.195999 -0.076801 0
-0.190531 -0.078941 0
-0.183695 -0.079783 0
-0.175614 -0.079399 0
-0.166440 -0.077890 0
-0.156338 -0.075374 0
-0.145482 -0.071988 0
-0.134053 -0.067872 0
-0.122226 -0.063170 0
-0.110170 -0.058017 0
-0.098047 -0.052539 0
-0.086006 -0.046848 0
-0.074188 -0.041042 0
-0.062726 -0.035202 0
-0.051749 -0.029403 0
-0.041386 -0.023713 0
-0.031775 -0.018208 0
-0.023067 -0.012987 0
-0.015434 -0.008195 0
-0.009075 -0.004058 0
-0.004217 -0.000926 0
-0.001109 0.000677 0
0.000000 -0.000000 0
0.000000 -0.000000 0
-0.001215 0.030777 0
-0.004599 0.057819 0
-0.009893 0.080878 0
-0.016843 0.099649 0
-0.025197 0.113885 0
-0.034709 0.123484 0
-0.045151 0.128547 0
-0.056311 0.129379 0
-0.067999 0.126454 0
-0.080050 0.120358 0
-0.092323 0.111711 0
-0.104693 0.101111 0
-0.117047 0.089086 0
-0.129279 0.076078 0
-0.141280 0.062439 0
-0.152935 0.048452 0
-0.164115 0.034345 0
-0.174677 0.020313 0
-0.184466 0.006534 0
-0.193318 -0.006811 0
-0.201066 -0.019553 0
-0.207578 -0.031551 0
-0.212726 -0.042676 0
-0.216396 -0.052802 0
-0.218487 -0.061805 0
-0.218924 -0.069580 0
-0.217663 -0.076036 0
-0.214696 -0.081114 0
-0.210056 -0.084785 0
-0.203813 -0.087056 0
-0.196074 -0.087969 0
-0.186979 -0.087600 0
-0.176693 -0.086051 0
-0.165398 -0.083447 0
-0.153287 -0.079928 0
-0.140557 -0.075638 0
-0.127402 -0.070719 0
-0.114009 -0.065306 0
-0.100558 -0.059521 0
-0.087219 -0.053468 0
-0.074156 -0.047237 0
-0.061530 -0.040900 0
-0.049504 -0.034523 0
-0.038250 -0.028168 0
-0.027961 -0.021914 0
-0.018854 -0.015879 0
-0.011185 -0.010254 0
-0.005255 -0.005355 0
-0.001404 -0.001686 0
0.000000 -0.000000 0
0.000000 -0.000000 0
-0.001181 0.033048 0
-0.004478 0.062108 0
-0.009645 0.086936 0
-0.016441 0.107229 0
-0.024626 0.122746 0
-0.033971 0.133399 0
-0.044265 0.139302 0
-0.055312 0.140783 0
-0.066942 0.138340 0
-0.079008 0.132579 0
-0.091383 0.124142 0
-0.103955 0.113640 0
-0.116627 0.101609 0
-0.129302 0.088492 0
-0.141881 0.074636 0
-0.154256 0.060311 0
-0.166303 0.045730 0
-0.177880 0.031073 0
-0.188829 0.016505 0
-0.198975 0.002191 0
-0.208129 -0.011687 0
-0.216109 -0.024965 0