# vtk DataFile Version 2.0
generated by CFD-lab course output (written by Tobias Neckel) 
ASCII

DATASET STRUCTURED_GRID
DIMENSIONS  51 51 1 
POINTS 2601 float

0.000000 0.000000 0
0.020000 0.000000 0
0.040000 0.000000 0
0.060000 0.000000 0
0.080000 0.000000 0
0.100000 0.000000 0
0.120000 0.000000 0
0.140000 0.000000 0
0.160000 0.000000 0
0.180000 0.000000 0
0.200000 0.000000 0
0.220000 0.000000 0
0.240000 0.000000 0
0.260000 0.000000 0
0.280000 0.000000 0
0.300000 0.000000 0
0.320000 0.000000 0
0.340000 0.000000 0
0.360000 0.000000 0
0.380000 0.000000 0
0.400000 0.000000 0
0.420000 0.000000 0
0.440000 0.000000 0
0.460000 0.000000 0
0.480000 0.000000 0
0.500000 0.000000 0
0.520000 0.000000 0
0.540000 0.000000 0
0.560000 0.000000 0
0.580000 0.000000 0
0.600000 0.000000 0
0.620000 0.000000 0
0.640000 0.000000 0
0.660000 0.000000 0
0.680000 0.000000 0
0.700000 0.000000 0
0.720000 0.000000 0
0.740000 0.000000 0
0.760000 0.000000 0
0.780000 0.000000 0
0.800000 0.000000 0
0.820000 0.000000 0
0.840000 0.000000 0
0.860000 0.000000 0
0.880000 0.000000 0
0.900000 0.000000 0
0.920000 0.000000 0
0.940000 0.000000 0
0.960000 0.000000 0
0.980000 0.000000 0
1.000000 0.000000 0
0.000000 0.020000 0
0.020000 0.020000 0
0.040000 0.020000 0
0.060000 0.020000 0
0.080000 0.020000 0
0.100000 0.020000 0
0.120000 0.020000 0
0.140000 0.020000 0
0.160000 0.020000 0
0.180000 0.020000 0
0.200000 0.020000 0
0.220000 0.020000 0
0.240000 0.020000 0
0.260000 0.020000 0
0.280000 0.020000 0
0.300000 0.020000 0
0.320000 0.020000 0
0.340000 0.020000 0
0.360000 0.020000 0
0.380000 0.020000 0
0.400000 0.020000 0
0.420000 0.020000 0
0.440000 0.020000 0
0.460000 0.020000 0
0.480000 0.020000 0
0.500000 0.020000 0
0.520000 0.020000 0
0.540000 0.020000 0
0.560000 0.020000 0
0.580000 0.020000 0
0.600000 0.020000 0
0.620000 0.020000 0
0.640000 0.020000 0
0.660000 0.020000 0
0.680000 0.020000 0
0.700000 0.020000 0
0.720000 0.020000 0
0.740000 0.020000 0
0.760000 0.020000 0
0.780000 0.020000 0
0.800000 0.020000 0
0.820000 0.020000 0
0.840000 0.020000 0
0.860000 0.020000 0
0.880000 0.020000 0
0.900000 0.020000 0
0.920000 0.020000 0
0.940000 0.020000 0
0.960000 0.020000 0
0.980000 0.020000 0
1.000000 0.020000 0
0.000000 0.040000 0
0.020000 0.040000 0
0.040000 0.040000 0
0.060000 0.040000 0
0.080000 0.040000 0
0.100000 0.040000 0
0.120000 0.040000 0
0.140000 0.040000 0
0.160000 0.040000 0
0.180000 0.040000 0
0.200000 0.040000 0
0.220000 0.040000 0
0.240000 0.040000 0
0.260000 0.040000 0
0.280000 0.040000 0
0.300000 0.040000 0
0.320000 0.040000 0
0.340000 0.040000 0
0.360000 0.040000 0
0.380000 0.040000 0
0.400000 0.040000 0
0.420000 0.040000 0
0.440000 0.040000 0
0.460000 0.040000 0
0.480000 0.040000 0
0.500000 0.040000 0
0.520000 0.040000 0
0.540000 0.040000 0
0.560000 0.040000 0
0.580000 0.040000 0
0.600000 0.040000 0
0.620000 0.040000 0
0.640000 0.040000 0
0.660000 0.040000 0
0.680000 0.040000 0
0.700000 0.040000 0
0.720000 0.040000 0
0.740000 0.040000 0
0.760000 0.040000 0
0.780000 0.040000 0
0.800000 0.040000 0
0.820000 0.040000 0
0.840000 0.040000 0
0.860000 0.040000 0
0.880000 0.040000 0
0.900000 0.040000 0
0.920000 0.040000 0
0.940000 0.040000 0
0.960000 0.040000 0
0.980000 0.040000 0
1.000000 0.040000 0
0.000000 0.060000 0
0.020000 0.060000 0
0.040000 0.060000 0
0.060000 0.060000 0
0.080000 0.060000 0
0.100000 0.060000 0
0.120000 0.060000 0
0.140000 0.060000 0
0.160000 0.060000 0
0.180000 0.060000 0
0.200000 0.060000 0
0.220000 0.060000 0
0.240000 0.060000 0
0.260000 0.060000 0
0.280000 0.060000 0
0.300000 0.060000 0
0.320000 0.060000 0
0.340000 0.060000 0
0.360000 0.060000 0
0.380000 0.060000 0
0.400000 0.060000 0
0.420000 0.060000 0
0.440000 0.060000 0
0.460000 0.060000 0
0.480000 0.060000 0
0.500000 0.060000 0
0.520000 0.060000 0
0.540000 0.060000 0
0.560000 0.060000 0
0.580000 0.060000 0
0.600000 0.060000 0
0.620000 0.060000 0
0.640000 0.060000 0
0.660000 0.060000 0
0.680000 0.060000 0
0.700000 0.060000 0
0.720000 0.060000 0
0.740000 0.060000 0
0.760000 0.060000 0
0.780000 0.060000 0
0.800000 0.060000 0
0.820000 0.060000 0
0.840000 0.060000 0
0.860000 0.060000 0
0.880000 0.060000 0
0.900000 0.060000 0
0.920000 0.060000 0
0.940000 0.060000 0
0.960000 0.060000 0
0.980000 0.060000 0
1.000000 0.060000 0
0.000000 0.080000 0
0.020000 0.080000 0
0.040000 0.080000 0
0.060000 0.080000 0
0.080000 0.080000 0
0.100000 0.080000 0
0.120000 0.080000 0
0.140000 0.080000 0
0.160000 0.080000 0
0.180000 0.080000 0
0.200000 0.080000 0
0.220000 0.080000 0
0.240000 0.080000 0
0.260000 0.080000 0
0.280000 0.080000 0
0.300000 0.080000 0
0.320000 0.080000 0
0.340000 0.080000 0
0.360000 0.080000 0
0.380000 0.080000 0
0.400000 0.080000 0
0.420000 0.080000 0
0.440000 0.080000 0
0.460000 0.080000 0
0.480000 0.080000 0
0.500000 0.080000 0
0.520000 0.080000 0
0.540000 0.080000 0
0.560000 0.080000 0
0.580000 0.080000 0
0.600000 0.080000 0
0.620000 0.080000 0
0.640000 0.080000 0
0.660000 0.080000 0
0.680000 0.080000 0
0.700000 0.080000 0
0.720000 0.080000 0
0.740000 0.080000 0
0.760000 0.080000 0
0.780000 0.080000 0
0.800000 0.080000 0
0.820000 0.080000 0
0.840000 0.080000 0
0.860000 0.080000 0
0.880000 0.080000 0
0.900000 0.080000 0
0.920000 0.080000 0
0.940000 0.080000 0
0.960000 0.080000 0
0.980000 0.080000 0
1.000000 0.080000 0
0.000000 0.100000 0
0.020000 0.100000 0
0.040000 0.100000 0
0.060000 0.100000 0
0.080000 0.100000 0
0.100000 0.100000 0
0.120000 0.100000 0
0.140000 0.100000 0
0.160000 0.100000 0
0.180000 0.100000 0
0.200000 0.100000 0
0.220000 0.100000 0
0.240000 0.100000 0
0.260000 0.100000 0
0.280000 0.100000 0
0.300000 0.100000 0
0.320000 0.100000 0
0.340000 0.100000 0
0.360000 0.100000 0
0.380000 0.100000 0
0.400000 0.100000 0
0.420000 0.100000 0
0.440000 0.100000 0
0.460000 0.100000 0
0.480000 0.100000 0
0.500000 0.100000 0
0.520000 0.100000 0
0.540000 0.100000 0
0.560000 0.100000 0
0.580000 0.100000 0
0.600000 0.100000 0
0.620000 0.100000 0
0.640000 0.100000 0
0.660000 0.100000 0
0.680000 0.100000 0
0.700000 0.100000 0
0.720000 0.100000 0
0.740000 0.100000 0
0.760000 0.100000 0
0.780000 0.100000 0
0.800000 0.100000 0
0.820000 0.100000 0
0.840000 0.100000 0
0.860000 0.100000 0
0.880000 0.100000 0
0.900000 0.100000 0
0.920000 0.100000 0
0.940000 0.100000 0
0.960000 0.100000 0
0.980000 0.100000 0
1.000000 0.100000 0
0.000000 0.120000 0
0.020000 0.120000 0
0.040000 0.120000 0
0.060000 0.120000 0
0.080000 0.120000 0
0.100000 0.120000 0
0.120000 0.120000 0
0.140000 0.120000 0
0.160000 0.120000 0
0.180000 0.120000 0
0.200000 0.120000 0
0.220000 0.120000 0
0.240000 0.120000 0
0.260000 0.120000 0
0.280000 0.120000 0
0.300000 0.120000 0
0.320000 0.120000 0
0.340000 0.120000 0
0.360000 0.120000 0
0.380000 0.120000 0
0.400000 0.120000 0
0.420000 0.120000 0
0.440000 0.120000 0
0.460000 0.120000 0
0.480000 0.120000 0
0.500000 0.120000 0
0.520000 0.120000 0
0.540000 0.120000 0
0.560000 0.120000 0
0.580000 0.120000 0
0.600000 0.120000 0
0.620000 0.120000 0
0.640000 0.120000 0
0.660000 0.120000 0
0.680000 0.120000 0
0.700000 0.120000 0
0.720000 0.120000 0
0.740000 0.120000 0
0.760000 0.120000 0
0.780000 0.120000 0
0.800000 0.120000 0
0.820000 0.120000 0
0.840000 0.120000 0
0.860000 0.120000 0
0.880000 0.120000 0
0.900000 0.120000 0
0.920000 0.120000 0
0.940000 0.120000 0
0.960000 0.120000 0
0.980000 0.120000 0
1.000000 0.120000 0
0.000000 0.140000 0
0.020000 0.140000 0
0.040000 0.140000 0
0.060000 0.140000 0
0.080000 0.140000 0
0.100000 0.140000 0
0.120000 0.140000 0
0.140000 0.140000 0
0.160000 0.140000 0
0.180000 0.140000 0
0.200000 0.140000 0
0.220000 0.140000 0
0.240000 0.140000 0
0.260000 0.140000 0
0.280000 0.140000 0
0.300000 0.140000 0
0.320000 0.140000 0
0.340000 0.140000 0
0.360000 0.140000 0
0.380000 0.140000 0
0.400000 0.140000 0
0.420000 0.140000 0
0.440000 0.140000 0
0.460000 0.140000 0
0.480000 0.140000 0
0.500000 0.140000 0
0.520000 0.140000 0
0.540000 0.140000 0
0.560000 0.140000 0
0.580000 0.140000 0
0.600000 0.140000 0
0.620000 0.140000 0
0.640000 0.140000 0
0.660000 0.140000 0
0.680000 0.140000 0
0.700000 0.140000 0
0.720000 0.140000 0
0.740000 0.140000 0
0.760000 0.140000 0
0.780000 0.140000 0
0.800000 0.140000 0
0.820000 0.140000 0
0.840000 0.140000 0
0.860000 0.140000 0
0.880000 0.140000 0
0.900000 0.140000 0
0.920000 0.140000 0
0.940000 0.140000 0
0.960000 0.140000 0
0.980000 0.140000 0
1.000000 0.140000 0
0.000000 0.160000 0
0.020000 0.160000 0
0.040000 0.160000 0
0.060000 0.160000 0
0.080000 0.160000 0
0.100000 0.160000 0
0.120000 0.160000 0
0.140000 0.160000 0
0.160000 0.160000 0
0.180000 0.160000 0
0.200000 0.160000 0
0.220000 0.160000 0
0.240000 0.160000 0
0.260000 0.160000 0
0.280000 0.160000 0
0.300000 0.160000 0
0.320000 0.160000 0
0.340000 0.160000 0
0.360000 0.160000 0
0.380000 0.160000 0
0.400000 0.160000 0
0.420000 0.160000 0
0.440000 0.160000 0
0.460000 0.160000 0
0.480000 0.160000 0
0.500000 0.160000 0
0.520000 0.160000 0
0.540000 0.160000 0
0.560000 0.160000 0
0.580000 0.160000 0
0.600000 0.160000 0
0.620000 0.160000 0
0.640000 0.160000 0
0.660000 0.160000 0
0.680000 0.160000 0
0.700000 0.160000 0
0.720000 0.160000 0
0.740000 0.160000 0
0.760000 0.160000 0
0.780000 0.160000 0
0.800000 0.160000 0
0.820000 0.160000 0
0.840000 0.160000 0
0.860000 0.160000 0
0.880000 0.160000 0
0.900000 0.160000 0
0.920000 0.160000 0
0.940000 0.160000 0
0.960000 0.160000 0
0.980000 0.160000 0
1.000000 0.160000 0
0.000000 0.180000 0
0.020000 0.180000 0
0.040000 0.180000 0
0.060000 0.180000 0
0.080000 0.180000 0
0.100000 0.180000 0
0.120000 0.180000 0
0.140000 0.180000 0
0.160000 0.180000 0
0.180000 0.180000 0
0.200000 0.180000 0
0.220000 0.180000 0
0.240000 0.180000 0
0.260000 0.180000 0
0.280000 0.180000 0
0.300000 0.180000 0
0.320000 0.180000 0
0.340000 0.180000 0
0.360000 0.180000 0
0.380000 0.180000 0
0.400000 0.180000 0
0.420000 0.180000 0
0.440000 0.180000 0
0.460000 0.180000 0
0.480000 0.180000 0
0.500000 0.180000 0
0.520000 0.180000 0
0.540000 0.180000 0
0.560000 0.180000 0
0.580000 0.180000 0
0.600000 0.180000 0
0.620000 0.180000 0
[...]
POINT_DATA 2601 

VECTORS velocity float
0.000000 0.000000 0
-0.000000 0.000000 0
-0.000001 0.000000 0
-0.000001 0.000000 0
-0.000000 0.000000 0
0.000000 0.000000 0
0.000000 0.000000 0
0.000000 0.000000 0
0.000000 0.000000 0
-0.000000 0.000000 0
-0.000000 0.000000 0
-0.000000 0.000000 0
-0.000000 0.000000 0
-0.000000 0.000000 0
-0.000000 0.000000 0
-0.000000 0.000000 0
-0.000000 0.000000 0
-0.000000 0.000000 0
-0.000000 0.000000 0
-0.000000 0.000000 0
0.000000 0.000000 0
0.000000 0.000000 0
0.000000 0.000000 0
0.000000 0.000000 0
0.000000 0.000000 0
-0.000000 0.000000 0
-0.000000 0.000000 0
-0.000000 0.000000 0
-0.000000 0.000000 0
-0.000000 0.000000 0
-0.000000 0.000000 0
0.000000 0.000000 0
0.000000 0.000000 0
0.000000 0.000000 0
0.000000 0.000000 0
0.000000 0.000000 0
0.000000 0.000000 0
0.000000 0.000000 0
0.000000 0.000000 0
0.000000 0.000000 0
0.000000 0.000000 0
0.000000 0.000000 0
0.000000 0.000000 0
0.000000 0.000000 0
0.000000 0.000000 0
0.000000 0.000000 0
0.000000 0.000000 0
0.000000 0.000000 0
0.000000 0.000000 0
-0.000000 0.000000 0
0.000000 0.000000 0
0.000000 -0.000000 0
-0.000006 0.000010 0
-0.000354 0.000245 0
-0.001124 0.000507 0
-0.002280 0.000725 0
-0.003731 0.000873 0
-0.005361 0.000943 0
-0.007046 0.000939 0
-0.008668 0.000868 0
-0.010125 0.000741 0
-0.011333 0.000574 0
-0.012235 0.000380 0
-0.012794 0.000175 0
-0.012999 -0.000029 0
-0.012853 -0.000225 0
-0.012377 -0.000403 0
-0.011602 -0.000558 0
-0.010567 -0.000688 0
-0.009316 -0.000789 0
-0.007898 -0.000862 0
-0.006360 -0.000907 0
-0.004750 -0.000925 0
-0.003112 -0.000919 0
-0.001490 -0.000892 0
0.000080 -0.000844 0
0.001566 -0.000781 0
0.002938 -0.000706 0
0.004177 -0.000621 0
0.005266 -0.000530 0
0.006195 -0.000435 0
0.006957 -0.000339 0
0.007551 -0.000245 0
0.007978 -0.000152 0
0.008243 -0.000064 0
0.008354 0.000019 0
0.008318 0.000096 0
0.008145 0.000167 0
0.007847 0.000233 0
0.007433 0.000292 0
0.006915 0.000346 0
0.006303 0.000393 0
0.005612 0.000433 0
0.004854 0.000465 0
0.004047 0.000486 0
0.003214 0.000492 0
0.002387 0.000477 0
0.001604 0.000432 0
0.000917 0.000350 0
0.000387 0.000224 0
0.000073 0.000073 0
0.000000 0.000000 0
0.000000 -0.000001 0
-0.000228 0.000353 0
-0.001088 0.001117 0
-0.002623 0.001926 0
-0.004766 0.002608 0
-0.007379 0.003081 0
-0.010281 0.003315 0
-0.013277 0.003307 0
-0.016175 0.003079 0
-0.018804 0.002665 0
-0.021025 0.002110 0
-0.022735 0.001461 0
-0.023868 0.000764 0
-0.024394 0.000059 0
-0.024316 -0.000622 0
-0.023658 -0.001252 0
-0.022467 -0.001811 0
-0.020804 -0.002286 0
-0.018740 -0.002669 0
-0.016354 -0.002956 0
-0.013727 -0.003148 0
-0.010940 -0.003247 0
-0.008071 -0.003260 0
-0.005195 -0.003193 0
-0.002379 -0.003056 0
0.000317 -0.002858 0
0.002841 -0.002612 0
0.005149 -0.002328 0
0.007210 -0.002018 0
0.008999 -0.001691 0
0.010502 -0.001356 0
0.011712 -0.001021 0
0.012629 -0.000692 0
0.013256 -0.000375 0
0.013605 -0.000074 0
0.013689 0.000209 0
0.013523 0.000471 0
0.013126 0.000712 0
0.012517 0.000932 0
0.011714 0.001129 0
0.010741 0.001303 0
0.009619 0.001450 0
0.008375 0.001565 0
0.007042 0.001639 0
0.005659 0.001660 0
0.004277 0.001611 0
0.002961 0.001470 0
0.001788 0.001217 0
0.000846 0.000844 0
0.000226 0.000387 0
0.000000 0.000000 0
0.000000 -0.000001 0
-0.000473 0.001097 0
-0.001864 0.002640 0
-0.004128 0.004186 0
-0.007149 0.005482 0
-0.010750 0.006388 0
-0.014710 0.006841 0
-0.018791 0.006832 0
-0.022756 0.006395 0
-0.026389 0.005592 0
-0.029513 0.004504 0
-0.031991 0.003223 0
-0.033733 0.001835 0
-0.034693 0.000418 0
-0.034864 -0.000961 0
-0.034270 -0.002252 0
-0.032962 -0.003412 0
-0.031011 -0.004414 0
-0.028500 -0.005238 0
-0.025526 -0.005875 0
-0.022190 -0.006321 0
-0.018594 -0.006582 0
-0.014841 -0.006665 0
-0.011029 -0.006584 0
-0.007248 -0.006357 0
-0.003581 -0.006001 0
-0.000101 -0.005538 0
0.003131 -0.004989 0
0.006062 -0.004379 0
0.008656 -0.003727 0
0.010885 -0.003053 0
0.012736 -0.002371 0
0.014202 -0.001697 0
0.015285 -0.001041 0
0.015994 -0.000414 0
0.016343 0.000178 0
0.016351 0.000730 0
0.016040 0.001239 0
0.015436 0.001704 0
0.014565 0.002122 0
0.013455 0.002489 0
0.012138 0.002799 0
0.010649 0.003042 0
0.009031 0.003202 0
0.007334 0.003257 0
0.005620 0.003175 0
0.003967 0.002922 0
0.002465 0.002464 0
0.001221 0.001786 0
0.000354 0.000919 0
0.000000 0.000000 0
0.000000 -0.000000 0
-0.000684 0.002217 0
-0.002560 0.004773 0
-0.005485 0.007211 0
-0.009290 0.009230 0
-0.013759 0.010643 0
-0.018642 0.011356 0
-0.023669 0.011352 0
-0.028576 0.010677 0
-0.033118 0.009422 0
-0.037090 0.007711 0
-0.040334 0.005681 0
-0.042739 0.003466 0
-0.044243 0.001190 0
-0.044829 -0.001044 0
-0.044514 -0.003153 0
-0.043346 -0.005070 0
-0.041395 -0.006748 0
-0.038751 -0.008154 0
-0.035516 -0.009267 0
-0.031799 -0.010080 0
-0.027716 -0.010596 0
-0.023383 -0.010825 0
-0.018915 -0.010786 0
-0.014418 -0.010503 0
-0.009994 -0.010006 0
-0.005732 -0.009324 0
-0.001710 -0.008491 0
0.002003 -0.007543 0
0.005354 -0.006514 0
0.008302 -0.005437 0
0.010821 -0.004338 0
0.012897 -0.003241 0
0.014524 -0.002167 0
0.015709 -0.001132 0
0.016462 -0.000148 0
0.016803 0.000774 0
0.016754 0.001627 0
0.016343 0.002408 0
0.015602 0.003111 0
0.014564 0.003730 0
0.013265 0.004256 0
0.011747 0.004672 0
0.010058 0.004954 0
0.008253 0.005071 0
0.006400 0.004978 0
0.004582 0.004625 0
0.002898 0.003962 0
0.001467 0.002955 0
0.000437 0.001608 0
0.000000 0.000000 0
0.000000 -0.000000 0
-0.000854 0.003657 0
-0.003143 0.007442 0
-0.006648 0.010916 0
-0.011147 0.013755 0
-0.016387 0.015739 0
-0.022093 0.016751 0
-0.027974 0.016766 0
-0.033745 0.015843 0
-0.039143 0.014106 0
-0.043946 0.011720 0
-0.047976 0.008871 0
-0.051108 0.005744 0
-0.053265 0.002508 0
-0.054417 -0.000691 0
-0.054573 -0.003734 0
-0.053772 -0.006530 0
-0.052078 -0.009008 0
-0.049576 -0.011118 0
-0.046365 -0.012828 0
-0.042558 -0.014121 0
-0.038273 -0.014997 0
-0.033633 -0.015466 0
-0.028759 -0.015550 0
-0.023772 -0.015278 0
-0.018784 -0.014687 0
-0.013901 -0.013821 0
-0.009214 -0.012724 0
-0.004807 -0.011444 0
-0.000746 -0.010027 0
0.002912 -0.008519 0
0.006126 -0.006965 0
0.008869 -0.005400 0
0.011128 -0.003854 0
0.012900 -0.002352 0
0.014191 -0.000916 0
0.015016 0.000439 0
0.015395 0.001699 0
0.015357 0.002855 0
0.014934 0.003901 0
0.014162 0.004826 0
0.013080 0.005616 0
0.011731 0.006250 0
0.010166 0.006697 0
0.008441 0.006914 0
0.006626 0.006846 0
0.004804 0.006425 0
0.003078 0.005580 0
0.001579 0.004247 0
0.000477 0.002386 0
0.000000 0.000000 0
0.000000 0.000000 0
-0.000986 0.005360 0
-0.003616 0.010567 0
-0.007616 0.015214 0
-0.012719 0.018968 0
-0.018643 0.021589 0
-0.025091 0.022943 0
-0.031754 0.023004 0
-0.038334 0.021845 0
-0.044558 0.019622 0
-0.050188 0.016543 0
-0.055036 0.012843 0
-0.058962 0.008756 0
-0.061877 0.004500 0
-0.063736 0.000264 0
-0.064536 -0.003798 0
-0.064303 -0.007566 0
-0.063092 -0.010945 0
-0.060976 -0.013867 0
-0.058049 -0.016284 0
-0.054413 -0.018172 0
-0.050184 -0.019521 0
-0.045484 -0.020339 0
-0.040438 -0.020647 0
-0.035170 -0.020478 0
-0.029801 -0.019877 0
-0.024448 -0.018893 0
-0.019216 -0.017585 0
-0.014200 -0.016011 0
-0.009483 -0.014233 0
-0.005134 -0.012309 0
-0.001208 -0.010295 0
0.002254 -0.008243 0
0.005223 -0.006197 0
0.007686 -0.004195 0
0.009641 -0.002264 0
0.011095 -0.000431 0
0.012063 0.001285 0
0.012569 0.002868 0
0.012643 0.004306 0
0.012321 0.005585 0
0.011642 0.006687 0
0.010649 0.007586 0
0.009391 0.008245 0
0.007924 0.008611 0
0.006315 0.008615 0
0.004645 0.008172 0
0.003018 0.007187 0
0.001568 0.005557 0
0.000479 0.003188 0
0.000000 0.000000 0
0.000000 0.000000 0
-0.001088 0.007274 0
-0.003993 0.014072 0
-0.008405 0.020019 0
-0.014026 0.024782 0
-0.020550 0.028111 0
-0.027663 0.029861 0
-0.035045 0.030010 0
-0.042388 0.028647 0
-0.049411 0.025959 0
-0.055869 0.022198 0
-0.061564 0.017645 0
-0.066346 0.012585 0
-0.070112 0.007283 0
-0.072805 0.001968 0
-0.074402 -0.003168 0
-0.074918 -0.007975 0
-0.074392 -0.012335 0
-0.072884 -0.016162 0
-0.070471 -0.019391 0
-0.067244 -0.021985 0
-0.063310 -0.023926 0
-0.058783 -0.025212 0
-0.053782 -0.025864 0
-0.048434 -0.025914 0
-0.042863 -0.025409 0
-0.037191 -0.024407 0
-0.031535 -0.022972 0
-0.026000 -0.021176 0
-0.020685 -0.019093 0
-0.015671 -0.016795 0
-0.011030 -0.014353 0
-0.006817 -0.011831 0
-0.003073 -0.009287 0
0.000173 -0.006770 0
0.002905 -0.004324 0
0.005123 -0.001984 0
0.006832 0.000224 0
0.008046 0.002276 0
0.008789 0.004149 0
0.009094 0.005827 0
0.008997 0.007288 0
0.008539 0.008501 0
0.007765 0.009422 0
0.006727 0.009990 0
0.005487 0.010125 0
0.004121 0.009722 0
0.002729 0.008656 0
0.001443 0.006786 0
0.000449 0.003954 0
0.000000 0.000000 0
0.000000 0.000000 0
-0.001164 0.009353 0
-0.004286 0.017884 0
-0.009033 0.025247 0
-0.015089 0.031113 0
-0.022132 0.035226 0
-0.029834 0.037437 0
-0.037871 0.037729 0
-0.045929 0.036212 0
-0.053723 0.033103 0
-0.061003 0.028697 0
-0.067565 0.023320 0
-0.073251 0.017304 0
-0.077946 0.010958 0
-0.081576 0.004553 0
-0.084105 -0.001685 0
-0.085529 -0.007575 0
-0.085867 -0.012979 0
-0.085162 -0.017789 0
-0.083473 -0.021924 0
-0.080874 -0.025333 0
-0.077455 -0.027983 0
-0.073318 -0.029867 0
-0.068574 -0.030995 0
-0.063343 -0.031398 0
-0.057747 -0.031120 0
-0.051912 -0.030222 0
-0.045959 -0.028776 0
-0.040006 -0.026861 0
-0.034162 -0.024562 0
-0.028523 -0.021963 0
-0.023177 -0.019150 0
-0.018193 -0.016200 0
-0.013630 -0.013187 0
-0.009530 -0.010173 0
-0.005922 -0.007215 0
-0.002823 -0.004357 0
-0.000239 -0.001637 0
0.001838 0.000912 0
0.003416 0.003258 0
0.004519 0.005377 0
0.005178 0.007242 0
0.005429 0.008818 0
0.005311 0.010056 0
0.004870 0.010888 0
0.004160 0.011220 0
0.003247 0.010931 0
0.002223 0.009865 0
0.001212 0.007837 0
0.000388 0.004631 0
0.000000 0.000000 0
0.000000 0.000000 0
-0.001220 0.011559 0
-0.004506 0.021941 0
-0.009520 0.030822 0
-0.015931 0.037880 0
-0.023411 0.042856 0
-0.031626 0.045600 0
-0.040249 0.046104 0
-0.048967 0.044498 0
-0.057493 0.041033 0
-0.065577 0.036041 0
-0.073011 0.029894 0
-0.079631 0.022966 0
-0.085310 0.015608 0
-0.089962 0.008127 0
-0.093532 0.000784 0
-0.095994 -0.006213 0
-0.097350 -0.012702 0
-0.097620 -0.018556 0
-0.096842 -0.023679 0
-0.095069 -0.028003 0
-0.092371 -0.031481 0
-0.088831 -0.034094 0
-0.084546 -0.035840 0
-0.079625 -0.036742 0
-0.074185 -0.036840 0
-0.068348 -0.036195 0
-0.062239 -0.034877 0
-0.055982 -0.032974 0
-0.049695 -0.030576 0
-0.043490 -0.027780 0
-0.037466 -0.024683 0
-0.031711 -0.021377 0
-0.026300 -0.017949 0
-0.021293 -0.014478 0
-0.016734 -0.011031 0
-0.012656 -0.007668 0
-0.009077 -0.004437 0
-0.006005 -0.001379 0
-0.003439 0.001467 0
-0.001373 0.004064 0
0.000211 0.006378 0
0.001340 0.008368 0
0.002048 0.009981 0
0.002368 0.011142 0
0.002345 0.011748 0
0.002034 0.011658 0
0.001509 0.010692 0
0.000878 0.008621 0
0.000299 0.005166 0
0.000000 0.000000 0
0.000000 0.000000 0
-0.001258 0.013859 0
-0.004665 0.026184 0
-0.009880 0.036672 0
-0.016571 0.045004 0
-0.024407 0.050920 0
-0.033056 0.054275 0
-0.042192 0.055070 0
-0.051505 0.053455 0
-0.060712 0.049714 0
-0.069566 0.044216 0
-0.077857 0.037374 0
-0.085417 0.029603 0
-0.092111 0.021290 0
-0.097840 0.012775 0
-0.102530 0.004347 0
-0.106135 -0.003758 0
-0.108635 -0.011354 0
-0.110025 -0.018297 0
-0.110320 -0.024475 0
-0.109551 -0.029804 0
-0.107761 -0.034221 0
-0.105013 -0.037692 0
-0.101384 -0.040201 0
-0.096966 -0.041759 0
-0.091865 -0.042397 0
-0.086197 -0.042168 0
-0.080084 -0.041142 0
-0.073652 -0.039405 0
-0.067029 -0.037054 0
-0.060334 -0.034193 0
-0.053684 -0.030928 0
-0.047180 -0.027366 0
-0.040916 -0.023605 0
-0.034969 -0.019739 0
-0.029403 -0.015852 0
-0.024266 -0.012014 0
-0.019594 -0.008289 0
-0.015411 -0.004727 0
-0.011728 -0.001373 0
-0.008551 0.001728 0
-0.005882 0.004528 0
-0.003709 0.006981 0
-0.002013 0.009029 0
-0.000769 0.010591 0
0.000052 0.011555 0
0.000486 0.011767 0
0.000589 0.011021 0
0.000445 0.009047 0
0.000183 0.005509 0
0.000000 0.000000 0
0.000000 0.000000 0
-0.001281 0.016224 0
-0.004768 0.030562 0
-0.010126 0.042728 0
-0.017026 0.052407 0
-0.025140 0.059340 0
-0.034141 0.063385 0
-0.043711 0.064553 0
-0.053546 0.063019 0
-0.063371 0.059095 0
-0.072942 0.053186 0
-0.082053 0.045744 0
-0.090534 0.037220 0
-0.098244 0.028031 0
-0.105073 0.018547 0
-0.110933 0.009080 0
-0.115756 -0.000109 0
-0.119493 -0.008812 0
-0.122120 -0.016870 0
-0.123624 -0.024154 0
-0.124011 -0.030563 0
-0.123298 -0.036019 0
-0.121521 -0.040471 0
-0.118734 -0.043887 0
-0.115009 -0.046260 0
-0.110433 -0.047610 0
-0.105110 -0.047976 0
-0.099157 -0.047422 0
-0.092698 -0.046029 0
-0.085863 -0.043894 0
-0.078781 -0.041126 0
-0.071577 -0.037837 0
-0.064373 -0.034145 0
-0.057275 -0.030160 0
-0.050381 -0.025991 0
-0.043774 -0.021734 0
-0.037522 -0.017476 0
-0.031679 -0.013292 0
-0.026287 -0.009245 0
-0.021376 -0.005392 0
-0.016964 -0.001781 0
-0.013067 0.001536 0
-0.009696 0.004498 0
-0.006853 0.007040 0
-0.004529 0.009078 0
-0.002714 0.010493 0
-0.001392 0.011121 0
-0.000534 0.010733 0
-0.000088 0.009027 0
0.000039 0.005611 0
0.000000 -0.000000 0
0.000000 0.000000 0
-0.001292 0.018628 0
-0.004824 0.035029 0
-0.010271 0.048929 0
-0.017312 0.060017 0
-0.025627 0.068036 0
-0.034899 0.072846 0
-0.044819 0.074474 0
-0.055094 0.073115 0
-0.065459 0.069110 0
-0.075679 0.062898 0
-0.085552 0.054965 0
-0.094909 0.045794 0
-0.103608 0.035829 0
-0.111529 0.025464 0
-0.118571 0.015030 0
-0.124649 0.004802 0
-0.129687 -0.004990 0
-0.133634 -0.014166 0
-0.136454 -0.022584 0
-0.138123 -0.030130 0
-0.138632 -0.036711 0
-0.137988 -0.042255 0
-0.136218 -0.046713 0
-0.133366 -0.050060 0
-0.129500 -0.052295 0
-0.124706 -0.053443 0
-0.119087 -0.053554 0
-0.112762 -0.052700 0
-0.105858 -0.050972 0
-0.098510 -0.048479 0
-0.090853 -0.045336 0
-0.083019 -0.041668 0
-0.075134 -0.037596 0
-0.067312 -0.033241 0
-0.059657 -0.028711 0
-0.052258 -0.024109 0
-0.045190 -0.019523 0
-0.038514 -0.015030 0
-0.032281 -0.010696 0
-0.026530 -0.006581 0
-0.021289 -0.002740 0
-0.016586 0.000767 0
-0.012448 0.003862 0
-0.008896 0.006452 0
-0.005941 0.008418 0
-0.003594 0.009587 0
-0.001858 0.009716 0
-0.000720 0.008474 0
-0.000134 0.005422 0
0.000000 -0.000000 0
0.000000 0.000000 0
-0.001291 0.021048 0
-0.004837 0.039541 0
-0.010324 0.055215 0
-0.017444 0.067763 0
-0.025887 0.076928 0
-0.035349 0.082577 0
-0.045532 0.084749 0
-0.056160 0.083660 0
-0.066978 0.079680 0
-0.077762 0.073279 0
-0.088319 0.064974 0
-0.098482 0.055275 0
-0.108111 0.044650 0
-0.117082 0.033510 0
-0.125285 0.022200 0
-0.132616 0.011007 0
-0.138984 0.000174 0
-0.144304 -0.010102 0
-0.148511 -0.019665 0
-0.151558 -0.028385 0
-0.153407 -0.036155 0
-0.154034 -0.042886 0
-0.153436 -0.048509 0
-0.151629 -0.052978 0
-0.148652 -0.056270 0
-0.144569 -0.058389 0
-0.139466 -0.059366 0
-0.133447 -0.059258 0
-0.126636 -0.058146 0
-0.119165 -0.056131 0
-0.111175 -0.053328 0
-0.102810 -0.049864 0
-0.094210 -0.045867 0
-0.085506 -0.041468 0
-0.076823 -0.036789 0
-0.068271 -0.031944 0
-0.059948 -0.027035 0
-0.051938 -0.022153 0
-0.044312 -0.017377 0
-0.037132 -0.012774 0
-0.030449 -0.008407 0
-0.024310 -0.004342 0
-0.018758 -0.000650 0
-0.013843 0.002571 0
-0.009612 0.005192 0
-0.006111 0.007038 0
-0.003379 0.007858 0
-0.001449 0.007303 0
-0.000335 0.004891 0
0.000000 -0.000000 0
0.000000 0.000000 0
-0.001281 0.023465 0
-0.004814 0.044061 0
-0.010298 0.061535 0
-0.017439 0.075580 0
-0.025940 0.085941 0
-0.035511 0.092492 0
-0.045872 0.095286 0
-0.056760 0.094561 0
-0.067935 0.090712 0
-0.079186 0.084238 0
-0.090330 0.075685 0
-0.101209 0.065586 0
-0.111685 0.054430 0
-0.121633 0.042637 0
-0.130938 0.030563 0
-0.139485 0.018502 0
-0.147167 0.006697 0
-0.153872 -0.004639 0
-0.159507 -0.015330 0
-0.163994 -0.025235 0
-0.167269 -0.034235 0
-0.169278 -0.042226 0
-0.169986 -0.049119 0
-0.169377 -0.054844 0
-0.167459 -0.059354 0
-0.164266 -0.062629 0
-0.159862 -0.064676 0
-0.154331 -0.065530 0
-0.147785 -0.065255 0
-0.140351 -0.063939 0
-0.132172 -0.061691 0
-0.123398 -0.058634 0
-0.114179 -0.054901 0
-0.104666 -0.050627 0
-0.095002 -0.045946 0
-0.085319 -0.040984 0
-0.075738 -0.035856 0
-0.066368 -0.030665 0
-0.057304 -0.025502 0
-0.048630 -0.020444 0
-0.040425 -0.015562 0
-0.032758 -0.010925 0
-0.025699 -0.006605 0
-0.019318 -0.002694 0
-0.013697 0.000686 0
-0.008923 0.003353 0
-0.005085 0.005055 0
-0.002273 0.005430 0
-0.000563 0.003972 0
0.000000 -0.000000 0
0.000000 0.000000 0
-0.001263 0.025861 0
-0.004759 0.048557 0
-0.010203 0.067840 0
-0.017312 0.083405 0
-0.025807 0.095001 0
-0.035412 0.102510 0
-0.045865 0.105997 0
-0.056917 0.105722 0
-0.068348 0.102106 0
-0.079960 0.095674 0
-0.091582 0.086997 0
-0.103067 0.076629 0
-0.114282 0.065075 0
-0.125105 0.052763 0
-0.135421 0.040052 0
-0.145108 0.027236 0
-0.154046 0.014560 0
-0.162110 0.002237 0
-0.169175 -0.009543 0
-0.175129 -0.020623 0
-0.179882 -0.030870 0
-0.183352 -0.040168 0
-0.185472 -0.048411 0
-0.186191 -0.055505 0
-0.185483 -0.061380 0
-0.183351 -0.065986 0
-0.179825 -0.069301 0
-0.174968 -0.071334 0
-0.168870 -0.072126 0
-0.161649 -0.071743 0
-0.153441 -0.070282 0
-0.144399 -0.067857 0
-0.134684 -0.064599 0
-0.124460 -0.060645 0
-0.113888 -0.056136 0
-0.103122 -0.051208 0
-0.092308 -0.045987 0
-0.081579 -0.040588 0
-0.071057 -0.035114 0
-0.060853 -0.029652 0
-0.051070 -0.024280 0
-0.041806 -0.019068 0
-0.033160 -0.014090 0
-0.025233 -0.009430 0
-0.018137 -0.005203 0
-0.011999 -0.001574 0
-0.006963 0.001209 0
-0.003184 0.002781 0
-0.000818 0.002618 0
0.000000 -0.000000 0
0.000000 0.000000 0
-0.001239 0.028223 0
-0.004678 0.053001 0
-0.010048 0.074088 0
-0.017080 0.091184 0
-0.025510 0.104041 0
-0.035078 0.112550 0
-0.045539 0.116791 0
-0.056663 0.117045 0
-0.068245 0.113754 0
-0.080106 0.107472 0
-0.092087 0.098792 0
-0.104052 0.088286 0
-0.115879 0.076468 0
-0.127453 0.063776 0
-0.138659 0.050566 0
-0.149376 0.037127 0
-0.159478 0.023699 0
-0.168826 0.010490 0
-0.177279 -0.002311 0
-0.184689 -0.014528 0
-0.190935 -0.026012 0
-0.195908 -0.036636 0
-0.199512 -0.046280 0
-0.201662 -0.054832 0
-0.202294 -0.062194 0
-0.201375 -0.068288 0
-0.198899 -0.073059 0
-0.194899 -0.076485 0
-0.189438 -0.078574 0
-0.182615 -0.079368 0
-0.174555 -0.078940 0
-0.165409 -0.077391 0
-0.155341 -0.074840 0
-0.144527 -0.071424 0
-0.133146 -0.067284 0
-0.121373 -0.062564 0
-0.109377 -0.057399 0
-0.097318 -0.051917 0
-0.085346 -0.046228 0
-0.073600 -0.040431 0
-0.062212 -0.034609 0
-0.051309 -0.028835 0
-0.041022 -0.023179 0
-0.031485 -0.017717 0
-0.022847 -0.012548 0
-0.015280 -0.007821 0
-0.008980 -0.003759 0
-0.004170 -0.000715 0
-0.001095 0.000788 0
0.000000 -0.000000 0
0.000000 0.000000 0
-0.001209 0.030539 0
-0.004576 0.057366 0
-0.009845 0.080242 0
-0.016760 0.098868 0
-0.025072 0.112999 0
-0.034538 0.122538 0
-0.044928 0.127582 0
-0.056032 0.128429 0
-0.067663 0.125548 0
-0.079657 0.119515 0
-0.091871 0.110943 0
-0.104184 0.100422 0
-0.116482 0.088476 0
-0.128661 0.075542 0
-0.140612 0.061975 0
-0.152219 0.048055 0
-0.163353 0.034011 0
-0.173872 0.020039 0
-0.183621 0.006320 0
-0.192436 -0.006967 0
-0.200150 -0.019651 0
-0.206632 -0.031591 0
-0.211754 -0.042657 0
-0.215402 -0.052723 0
-0.217475 -0.061667 0
-0.217899 -0.069381 0
-0.216630 -0.075777 0
-0.213662 -0.080796 0
-0.209026 -0.084410 0
-0.202793 -0.086626 0
-0.195072 -0.087488 0
-0.186002 -0.087071 0
-0.175746 -0.085480 0
-0.164489 -0.082840 0
-0.152422 -0.079291 0
-0.139742 -0.074977 0
-0.126642 -0.070041 0
-0.113309 -0.064619 0
-0.099923 -0.058832 0
-0.086651 -0.052786 0
-0.073659 -0.046570 0
-0.061104 -0.040258 0
-0.049150 -0.033915 0
-0.037968 -0.027605 0
-0.027747 -0.021408 0
-0.018704 -0.015442 0
-0.011092 -0.009902 0
-0.005209 -0.005103 0
-0.001391 -0.001552 0
0.000000 -0.000000 0
0.000000 0.000000 0
-0.001176 0.032799 0
-0.004458 0.061636 0
-0.009603 0.086272 0
-0.016368 0.106412 0
-0.024517 0.121819 0
-0.033821 0.132406 0
-0.044068 0.138286 0
-0.055066 0.139780 0
-0.066644 0.137379 0
-0.078656 0.131681 0
-0.090977 0.123319 0
-0.103496 0.112897 0
-0.116116 0.100946 0
-0.128741 0.087906 0
-0.141273 0.074123 0
-0.153603 0.059868 0
-0.165608 0.045353 0
-0.177146 0.030759 0
-0.188059 0.016253 0
-0.198171 0.002001 0
-0.207294 -0.011816 0
-0.215247 -0.025032 0