# vtk DataFile Version 2.0
generated by CFD-lab course output (written by Tobias Neckel) 
ASCII

DATASET STRUCTURED_GRID
DIMENSIONS  51 51 1 
POINTS 2601 float

0.000000 0.000000 0
0.020000 0.000000 0
0.040000 0.000000 0
0.060000 0.000000 0
0.080000 0.000000 0
0.100000 0.000000 0
0.120000 0.000000 0
0.140000 0.000000 0
0.160000 0.000000 0
0.180000 0.000000 0
0.200000 0.000000 0
0.220000 0.000000 0
0.240000 0.000000 0
0.260000 0.000000 0
0.280000 0.000000 0
0.300000 0.000000 0
0.320000 0.000000 0
0.340000 0.000000 0
0.360000 0.000000 0
0.380000 0.000000 0
0.400000 0.000000 0
0.420000 0.000000 0
0.440000 0.000000 0
0.460000 0.000000 0
0.480000 0.000000 0
0.500000 0.000000 0
0.520000 0.000000 0
0.540000 0.000000 0
0.560000 0.000000 0
0.580000 0.000000 0
0.600000 0.000000 0
0.620000 0.000000 0
0.640000 0.000000 0
0.660000 0.000000 0
0.680000 0.000000 0
0.700000 0.000000 0
0.720000 0.000000 0
0.740000 0.000000 0
0.760000 0.000000 0
0.780000 0.000000 0
0.800000 0.000000 0
0.820000 0.000000 0
0.840000 0.000000 0
0.860000 0.000000 0
0.880000 0.000000 0
0.900000 0.000000 0
0.920000 0.000000 0
0.940000 0.000000 0
0.960000 0.000000 0
0.980000 0.000000 0
1.000000 0.000000 0
0.000000 0.020000 0
0.020000 0.020000 0
0.040000 0.020000 0
0.060000 0.020000 0
0.080000 0.020000 0
0.100000 0.020000 0
0.120000 0.020000 0
0.140000 0.020000 0
0.160000 0.020000 0
0.180000 0.020000 0
0.200000 0.020000 0
0.220000 0.020000 0
0.240000 0.020000 0
0.260000 0.020000 0
0.280000 0.020000 0
0.300000 0.020000 0
0.320000 0.020000 0
0.340000 0.020000 0
0.360000 0.020000 0
0.380000 0.020000 0
0.400000 0.020000 0
0.420000 0.020000 0
0.440000 0.020000 0
0.460000 0.020000 0
0.480000 0.020000 0
0.500000 0.020000 0
0.520000 0.020000 0
0.540000 0.020000 0
0.560000 0.020000 0
0.580000 0.020000 0
0.600000 0.020000 0
0.620000 0.020000 0
0.640000 0.020000 0
0.660000 0.020000 0
0.680000 0.020000 0
0.700000 0.020000 0
0.720000 0.020000 0
0.740000 0.020000 0
0.760000 0.020000 0
0.780000 0.020000 0
0.800000 0.020000 0
0.820000 0.020000 0
0.840000 0.020000 0
0.860000 0.020000 0
0.880000 0.020000 0
0.900000 0.020000 0
0.920000 0.020000 0
0.940000 0.020000 0
0.960000 0.020000 0
0.980000 0.020000 0
1.000000 0.020000 0
0.000000 0.040000 0
0.020000 0.040000 0
0.040000 0.040000 0
0.060000 0.040000 0
0.080000 0.040000 0
0.100000 0.040000 0
0.120000 0.040000 0
0.140000 0.040000 0
0.160000 0.040000 0
0.180000 0.040000 0
0.200000 0.040000 0
0.220000 0.040000 0
0.240000 0.040000 0
0.260000 0.040000 0
0.280000 0.040000 0
0.300000 0.040000 0
0.320000 0.040000 0
0.340000 0.040000 0
0.360000 0.040000 0
0.380000 0.040000 0
0.400000 0.040000 0
0.420000 0.040000 0
0.440000 0.040000 0
0.460000 0.040000 0
0.480000 0.040000 0
0.500000 0.040000 0
0.520000 0.040000 0
0.540000 0.040000 0
0.560000 0.040000 0
0.580000 0.040000 0
0.600000 0.040000 0
0.620000 0.040000 0
0.640000 0.040000 0
0.660000 0.040000 0
0.680000 0.040000 0
0.700000 0.040000 0
0.720000 0.040000 0
0.740000 0.040000 0
0.760000 0.040000 0
0.780000 0.040000 0
0.800000 0.040000 0
0.820000 0.040000 0
0.840000 0.040000 0
0.860000 0.040000 0
0.880000 0.040000 0
0.900000 0.040000 0
0.920000 0.040000 0
0.940000 0.040000 0
0.960000 0.040000 0
0.980000 0.040000 0
1.000000 0.040000 0
0.000000 0.060000 0
0.020000 0.060000 0
0.040000 0.060000 0
0.060000 0.060000 0
0.080000 0.060000 0
0.100000 0.060000 0
0.120000 0.060000 0
0.140000 0.060000 0
0.160000 0.060000 0
0.180000 0.060000 0
0.200000 0.060000 0
0.220000 0.060000 0
0.240000 0.060000 0
0.260000 0.060000 0
0.280000 0.060000 0
0.300000 0.060000 0
0.320000 0.060000 0
0.340000 0.060000 0
0.360000 0.060000 0
0.380000 0.060000 0
0.400000 0.060000 0
0.420000 0.060000 0
0.440000 0.060000 0
0.460000 0.060000 0
0.480000 0.060000 0
0.500000 0.060000 0
0.520000 0.060000 0
0.540000 0.060000 0
0.560000 0.060000 0
0.580000 0.060000 0
0.600000 0.060000 0
0.620000 0.060000 0
0.640000 0.060000 0
0.660000 0.060000 0
0.680000 0.060000 0
0.700000 0.060000 0
0.720000 0.060000 0
0.740000 0.060000 0
0.760000 0.060000 0
0.780000 0.060000 0
0.800000 0.060000 0
0.820000 0.060000 0
0.840000 0.060000 0
0.860000 0.060000 0
0.880000 0.060000 0
0.900000 0.060000 0
0.920000 0.060000 0
0.940000 0.060000 0
0.960000 0.060000 0
0.980000 0.060000 0
1.000000 0.060000 0
0.000000 0.080000 0
0.020000 0.080000 0
0.040000 0.080000 0
0.060000 0.080000 0
0.080000 0.080000 0
0.100000 0.080000 0
0.120000 0.080000 0
0.140000 0.080000 0
0.160000 0.080000 0
0.180000 0.080000 0
0.200000 0.080000 0
0.220000 0.080000 0
0.240000 0.080000 0
0.260000 0.080000 0
0.280000 0.080000 0
0.300000 0.080000 0
0.320000 0.080000 0
0.340000 0.080000 0
0.360000 0.080000 0
0.380000 0.080000 0
0.400000 0.080000 0
0.420000 0.080000 0
0.440000 0.080000 0
0.460000 0.080000 0
0.480000 0.080000 0
0.500000 0.080000 0
0.520000 0.080000 0
0.540000 0.080000 0
0.560000 0.080000 0
0.580000 0.080000 0
0.600000 0.080000 0
0.620000 0.080000 0
0.640000 0.080000 0
0.660000 0.080000 0
0.680000 0.080000 0
0.700000 0.080000 0
0.720000 0.080000 0
0.740000 0.080000 0
0.760000 0.080000 0
0.780000 0.080000 0
0.800000 0.080000 0
0.820000 0.080000 0
0.840000 0.080000 0
0.860000 0.080000 0
0.880000 0.080000 0
0.900000 0.080000 0
0.920000 0.080000 0
0.940000 0.080000 0
0.960000 0.080000 0
0.980000 0.080000 0
1.000000 0.080000 0
0.000000 0.100000 0
0.020000 0.100000 0
0.040000 0.100000 0
0.060000 0.100000 0
0.080000 0.100000 0
0.100000 0.100000 0
0.120000 0.100000 0
0.140000 0.100000 0
0.160000 0.100000 0
0.180000 0.100000 0
0.200000 0.100000 0
0.220000 0.100000 0
0.240000 0.100000 0
0.260000 0.100000 0
0.280000 0.100000 0
0.300000 0.100000 0
0.320000 0.100000 0
0.340000 0.100000 0
0.360000 0.100000 0
0.380000 0.100000 0
0.400000 0.100000 0
0.420000 0.100000 0
0.440000 0.100000 0
0.460000 0.100000 0
0.480000 0.100000 0
0.500000 0.100000 0
0.520000 0.100000 0
0.540000 0.100000 0
0.560000 0.100000 0
0.580000 0.100000 0
0.600000 0.100000 0
0.620000 0.100000 0
0.640000 0.100000 0
0.660000 0.100000 0
0.680000 0.100000 0
0.700000 0.100000 0
0.720000 0.100000 0
0.740000 0.100000 0
0.760000 0.100000 0
0.780000 0.100000 0
0.800000 0.100000 0
0.820000 0.100000 0
0.840000 0.100000 0
0.860000 0.100000 0
0.880000 0.100000 0
0.900000 0.100000 0
0.920000 0.100000 0
0.940000 0.100000 0
0.960000 0.100000 0
0.980000 0.100000 0
1.000000 0.100000 0
0.000000 0.120000 0
0.020000 0.120000 0
0.040000 0.120000 0
0.060000 0.120000 0
0.080000 0.120000 0
0.100000 0.120000 0
0.120000 0.120000 0
0.140000 0.120000 0
0.160000 0.120000 0
0.180000 0.120000 0
0.200000 0.120000 0
0.220000 0.120000 0
0.240000 0.120000 0
0.260000 0.120000 0
0.280000 0.120000 0
0.300000 0.120000 0
0.320000 0.120000 0
0.340000 0.120000 0
0.360000 0.120000 0
0.380000 0.120000 0
0.400000 0.120000 0
0.420000 0.120000 0
0.440000 0.120000 0
0.460000 0.120000 0
0.480000 0.120000 0
0.500000 0.120000 0
0.520000 0.120000 0
0.540000 0.120000 0
0.560000 0.120000 0
0.580000 0.120000 0
0.600000 0.120000 0
0.620000 0.120000 0
0.640000 0.120000 0
0.660000 0.120000 0
0.680000 0.120000 0
0.700000 0.120000 0
0.720000 0.120000 0
0.740000 0.120000 0
0.760000 0.120000 0
0.780000 0.120000 0
0.800000 0.120000 0
0.820000 0.120000 0
0.840000 0.120000 0
0.860000 0.120000 0
0.880000 0.120000 0
0.900000 0.120000 0
0.920000 0.120000 0
0.940000 0.120000 0
0.960000 0.120000 0
0.980000 0.120000 0
1.000000 0.120000 0
0.000000 0.140000 0
0.020000 0.140000 0
0.040000 0.140000 0
0.060000 0.140000 0
0.080000 0.140000 0
0.100000 0.140000 0
0.120000 0.140000 0
0.140000 0.140000 0
0.160000 0.140000 0
0.180000 0.140000 0
0.200000 0.140000 0
0.220000 0.140000 0
0.240000 0.140000 0
0.260000 0.140000 0
0.280000 0.140000 0
0.300000 0.140000 0
0.320000 0.140000 0
0.340000 0.140000 0
0.360000 0.140000 0
0.380000 0.140000 0
0.400000 0.140000 0
0.420000 0.140000 0
0.440000 0.140000 0
0.460000 0.140000 0
0.480000 0.140000 0
0.500000 0.140000 0
0.520000 0.140000 0
0.540000 0.140000 0
0.560000 0.140000 0
0.580000 0.140000 0
0.600000 0.140000 0
0.620000 0.140000 0
0.640000 0.140000 0
0.660000 0.140000 0
0.680000 0.140000 0
0.700000 0.140000 0
0.720000 0.140000 0
0.740000 0.140000 0
0.760000 0.140000 0
0.780000 0.140000 0
0.800000 0.140000 0
0.820000 0.140000 0
0.840000 0.140000 0
0.860000 0.140000 0
0.880000 0.140000 0
0.900000 0.140000 0
0.920000 0.140000 0
0.940000 0.140000 0
0.960000 0.140000 0
0.980000 0.140000 0
1.000000 0.140000 0
0.000000 0.160000 0
0.020000 0.160000 0
0.040000 0.160000 0
0.060000 0.160000 0
0.080000 0.160000 0
0.100000 0.160000 0
0.120000 0.160000 0
0.140000 0.160000 0
0.160000 0.160000 0
0.180000 0.160000 0
0.200000 0.160000 0
0.220000 0.160000 0
0.240000 0.160000 0
0.260000 0.160000 0
0.280000 0.160000 0
0.300000 0.160000 0
0.320000 0.160000 0
0.340000 0.160000 0
0.360000 0.160000 0
0.380000 0.160000 0
0.400000 0.160000 0
0.420000 0.160000 0
0.440000 0.160000 0
0.460000 0.160000 0
0.480000 0.160000 0
0.500000 0.160000 0
0.520000 0.160000 0
0.540000 0.160000 0
0.560000 0.160000 0
0.580000 0.160000 0
0.600000 0.160000 0
0.620000 0.160000 0
0.640000 0.160000 0
0.660000 0.160000 0
0.680000 0.160000 0
0.700000 0.160000 0
0.720000 0.160000 0
0.740000 0.160000 0
0.760000 0.160000 0
0.780000 0.160000 0
0.800000 0.160000 0
0.820000 0.160000 0
0.840000 0.160000 0
0.860000 0.160000 0
0.880000 0.160000 0
0.900000 0.160000 0
0.920000 0.160000 0
0.940000 0.160000 0
0.960000 0.160000 0
0.980000 0.160000 0
1.000000 0.160000 0
0.000000 0.180000 0
0.020000 0.180000 0
0.040000 0.180000 0
0.060000 0.180000 0
0.080000 0.180000 0
0.100000 0.180000 0
0.120000 0.180000 0
0.140000 0.180000 0
0.160000 0.180000 0
0.180000 0.180000 0
0.200000 0.180000 0
0.220000 0.180000 0
0.240000 0.180000 0
0.260000 0.180000 0
0.280000 0.180000 0
0.300000 0.180000 0
0.320000 0.180000 0
0.340000 0.180000 0
0.360000 0.180000 0
0.380000 0.180000 0
0.400000 0.180000 0
0.420000 0.180000 0
0.440000 0.180000 0
0.460000 0.180000 0
0.480000 0.180000 0
0.500000 0.180000 0
0.520000 0.180000 0
0.540000 0.180000 0
0.560000 0.180000 0
0.580000 0.180000 0
0.600000 0.180000 0
0.620000 0.180000 0
[...]
POINT_DATA 2601 

VECTORS velocity float
0.000000 0.000000 0
-0.000001 0.000000 0
-0.000001 0.000000 0
-0.000000 0.000000 0
0.000000 0.000000 0
0.000000 0.000000 0
0.000000 0.000000 0
-0.000000 0.000000 0
-0.000000 0.000000 0
-0.000000 0.000000 0
-0.000000 0.000000 0
-0.000000 0.000000 0
-0.000000 0.000000 0
-0.000000 0.000000 0
-0.000000 0.000000 0
0.000000 0.000000 0
0.000000 0.000000 0
0.000000 0.000000 0
0.000000 0.000000 0
-0.000000 0.000000 0
-0.000000 0.000000 0
-0.000000 0.000000 0
-0.000000 0.000000 0
0.000000 0.000000 0
0.000000 0.000000 0
0.000000 0.000000 0
0.000000 0.000000 0
0.000000 0.000000 0
-0.000000 0.000000 0
-0.000000 0.000000 0
-0.000000 0.000000 0
-0.000000 0.000000 0
-0.000000 0.000000 0
-0.000000 0.000000 0
0.000000 0.000000 0
0.000000 0.000000 0
0.000000 0.000000 0
0.000000 0.000000 0
0.000000 0.000000 0
-0.000000 0.000000 0
-0.000000 0.000000 0
-0.000000 0.000000 0
-0.000000 0.000000 0
0.000000 0.000000 0
0.000000 0.000000 0
0.000000 0.000000 0
0.000000 0.000000 0
0.000000 0.000000 0
-0.000000 0.000000 0
-0.000000 0.000000 0
0.000000 0.000000 0
0.000000 -0.000001 0
-0.000007 0.000010 0
-0.000357 0.000248 0
-0.001135 0.000513 0
-0.002303 0.000733 0
-0.003769 0.000882 0
-0.005415 0.000953 0
-0.007117 0.000948 0
-0.008755 0.000876 0
-0.010225 0.000748 0
-0.011444 0.000578 0
-0.012352 0.000383 0
-0.012916 0.000176 0
-0.013122 -0.000030 0
-0.012975 -0.000227 0
-0.012496 -0.000406 0
-0.011715 -0.000562 0
-0.010673 -0.000692 0
-0.009415 -0.000794 0
-0.007988 -0.000867 0
-0.006441 -0.000912 0
-0.004821 -0.000931 0
-0.003175 -0.000925 0
-0.001543 -0.000897 0
0.000036 -0.000849 0
0.001530 -0.000786 0
0.002911 -0.000710 0
0.004157 -0.000624 0
0.005253 -0.000533 0
0.006187 -0.000438 0
0.006955 -0.000342 0
0.007554 -0.000247 0
0.007985 -0.000154 0
0.008254 -0.000066 0
0.008367 0.000017 0
0.008333 0.000095 0
0.008163 0.000167 0
0.007866 0.000232 0
0.007453 0.000292 0
0.006935 0.000346 0
0.006324 0.000393 0
0.005632 0.000434 0
0.004873 0.000466 0
0.004065 0.000488 0
0.003230 0.000494 0
0.002400 0.000479 0
0.001614 0.000435 0
0.000923 0.000352 0
0.000390 0.000226 0
0.000074 0.000074 0
0.000000 0.000000 0
0.000000 -0.000001 0
-0.000230 0.000356 0
-0.001098 0.001128 0
-0.002648 0.001946 0
-0.004814 0.002635 0
-0.007454 0.003113 0
-0.010385 0.003348 0
-0.013410 0.003339 0
-0.016336 0.003108 0
-0.018990 0.002689 0
-0.021231 0.002128 0
-0.022955 0.001472 0
-0.024098 0.000770 0
-0.024629 0.000059 0
-0.024550 -0.000626 0
-0.023889 -0.001260 0
-0.022691 -0.001823 0
-0.021018 -0.002300 0
-0.018943 -0.002685 0
-0.016544 -0.002974 0
-0.013902 -0.003166 0
-0.011100 -0.003266 0
-0.008215 -0.003278 0
-0.005323 -0.003211 0
-0.002491 -0.003073 0
0.000220 -0.002875 0
0.002759 -0.002627 0
0.005081 -0.002342 0
0.007155 -0.002031 0
0.008956 -0.001702 0
0.010470 -0.001366 0
0.011690 -0.001030 0
0.012616 -0.000700 0
0.013252 -0.000382 0
0.013608 -0.000079 0
0.013697 0.000204 0
0.013537 0.000468 0
0.013144 0.000710 0
0.012538 0.000930 0
0.011738 0.001129 0
0.010766 0.001303 0
0.009645 0.001451 0
0.008401 0.001567 0
0.007067 0.001643 0
0.005682 0.001665 0
0.004297 0.001617 0
0.002976 0.001476 0
0.001798 0.001223 0
0.000852 0.000849 0
0.000228 0.000390 0
0.000000 0.000000 0
0.000000 -0.000000 0
-0.000476 0.001108 0
-0.001882 0.002667 0
-0.004169 0.004229 0
-0.007220 0.005538 0
-0.010858 0.006452 0
-0.014858 0.006909 0
-0.018979 0.006899 0
-0.022981 0.006455 0
-0.026648 0.005642 0
-0.029800 0.004544 0
-0.032300 0.003250 0
-0.034058 0.001850 0
-0.035028 0.000423 0
-0.035203 -0.000966 0
-0.034608 -0.002265 0
-0.033295 -0.003433 0
-0.031334 -0.004440 0
-0.028811 -0.005268 0
-0.025822 -0.005908 0
-0.022469 -0.006356 0
-0.018855 -0.006618 0
-0.015083 -0.006701 0
-0.011250 -0.006621 0
-0.007449 -0.006393 0
-0.003762 -0.006036 0
-0.000262 -0.005570 0
0.002990 -0.005020 0
0.005940 -0.004408 0
0.008551 -0.003753 0
0.010798 -0.003076 0
0.012665 -0.002392 0
0.014145 -0.001716 0
0.015242 -0.001058 0
0.015963 -0.000428 0
0.016323 0.000166 0
0.016340 0.000720 0
0.016038 0.001231 0
0.015441 0.001698 0
0.014576 0.002117 0
0.013471 0.002487 0
0.012157 0.002799 0
0.010671 0.003045 0
0.009053 0.003207 0
0.007356 0.003264 0
0.005640 0.003184 0
0.003983 0.002933 0
0.002477 0.002476 0
0.001228 0.001796 0
0.000356 0.000926 0
0.000000 0.000000 0
0.000000 0.000000 0
-0.000690 0.002239 0
-0.002584 0.004821 0
-0.005539 0.007284 0
-0.009382 0.009323 0
-0.013896 0.010750 0
-0.018826 0.011469 0
-0.023902 0.011462 0
-0.028855 0.010777 0
-0.033439 0.009508 0
-0.037448 0.007780 0
-0.040721 0.005731 0
-0.043148 0.003497 0
-0.044668 0.001204 0
-0.045263 -0.001046 0
-0.044951 -0.003168 0
-0.043782 -0.005097 0
-0.041825 -0.006784 0
-0.039171 -0.008197 0
-0.035922 -0.009316 0
-0.032189 -0.010133 0
-0.028087 -0.010652 0
-0.023735 -0.010883 0
-0.019244 -0.010844 0
-0.014725 -0.010561 0
-0.010277 -0.010062 0
-0.005991 -0.009379 0
-0.001946 -0.008544 0
0.001791 -0.007592 0
0.005166 -0.006561 0
0.008136 -0.005480 0
0.010677 -0.004377 0
0.012773 -0.003277 0
0.014420 -0.002199 0
0.015623 -0.001160 0
0.016393 -0.000173 0
0.016749 0.000752 0
0.016714 0.001609 0
0.016316 0.002393 0
0.015586 0.003099 0
0.014557 0.003722 0
0.013266 0.004251 0
0.011755 0.004671 0
0.010069 0.004958 0
0.008267 0.005078 0
0.006414 0.004989 0
0.004595 0.004639 0
0.002907 0.003978 0
0.001473 0.002970 0
0.000439 0.001618 0
0.000000 0.000000 0
0.000000 0.000000 0
-0.000861 0.003694 0
-0.003173 0.007516 0
-0.006713 0.011026 0
-0.011255 0.013893 0
-0.016547 0.015896 0
-0.022307 0.016916 0
-0.028244 0.016928 0
-0.034068 0.015992 0
-0.039516 0.014236 0
-0.044362 0.011826 0
-0.048429 0.008951 0
-0.051591 0.005797 0
-0.053770 0.002537 0
-0.054938 -0.000684 0
-0.055103 -0.003746 0
-0.054305 -0.006559 0
-0.052610 -0.009051 0
-0.050102 -0.011171 0
-0.046882 -0.012890 0
-0.043062 -0.014191 0
-0.038761 -0.015072 0
-0.034101 -0.015545 0
-0.029207 -0.015631 0
-0.024196 -0.015360 0
-0.019184 -0.014769 0
-0.014274 -0.013901 0
-0.009561 -0.012802 0
-0.005126 -0.011519 0
-0.001038 -0.010099 0
0.002647 -0.008587 0
0.005889 -0.007029 0
0.008659 -0.005459 0
0.010943 -0.003908 0
0.012740 -0.002402 0
0.014054 -0.000960 0
0.014901 0.000399 0
0.015302 0.001664 0
0.015283 0.002826 0
0.014877 0.003876 0
0.014120 0.004806 0
0.013051 0.005602 0
0.011714 0.006242 0
0.010157 0.006695 0
0.008440 0.006919 0
0.006629 0.006856 0
0.004809 0.006440 0
0.003084 0.005598 0
0.001583 0.004265 0
0.000478 0.002398 0
0.000000 0.000000 0
0.000000 0.000000 0
-0.000995 0.005413 0
-0.003650 0.010672 0
-0.007688 0.015366 0
-0.012840 0.019157 0
-0.018820 0.021802 0
-0.025328 0.023167 0
-0.032053 0.023224 0
-0.038694 0.022050 0
-0.044973 0.019802 0
-0.050653 0.016692 0
-0.055544 0.012959 0
-0.059507 0.008838 0
-0.062451 0.004551 0
-0.064333 0.000287 0
-0.065148 -0.003801 0
-0.064926 -0.007590 0
-0.063719 -0.010988 0
-0.061604 -0.013925 0
-0.058672 -0.016356 0
-0.055029 -0.018254 0
-0.050788 -0.019612 0
-0.046073 -0.020437 0
-0.041008 -0.020750 0
-0.035718 -0.020584 0
-0.030326 -0.019984 0
-0.024946 -0.019001 0
-0.019686 -0.017692 0
-0.014641 -0.016116 0
-0.009893 -0.014334 0
-0.005512 -0.012407 0
-0.001553 -0.010389 0
0.001940 -0.008331 0
0.004942 -0.006280 0
0.007436 -0.004272 0
0.009421 -0.002335 0
0.010905 -0.000495 0
0.011902 0.001227 0
0.012434 0.002817 0
0.012532 0.004262 0
0.012233 0.005548 0
0.011574 0.006658 0
0.010599 0.007565 0
0.009356 0.008232 0
0.007902 0.008607 0
0.006303 0.008619 0
0.004640 0.008185 0
0.003017 0.007204 0
0.001569 0.005576 0
0.000480 0.003201 0
0.000000 0.000000 0
0.000000 0.000000 0
-0.001097 0.007344 0
-0.004029 0.014209 0
-0.008482 0.020215 0
-0.014155 0.025025 0
-0.020739 0.028385 0
-0.027917 0.030149 0
-0.035365 0.030293 0
-0.042774 0.028912 0
-0.049858 0.026195 0
-0.056372 0.022397 0
-0.062117 0.017804 0
-0.066941 0.012704 0
-0.070744 0.007363 0
-0.073465 0.002014 0
-0.075085 -0.003153 0
-0.075619 -0.007988 0
-0.075106 -0.012372 0
-0.073605 -0.016219 0
-0.071194 -0.019466 0
-0.067966 -0.022075 0
-0.064026 -0.024028 0
-0.059488 -0.025325 0
-0.054474 -0.025985 0
-0.049108 -0.026042 0
-0.043515 -0.025541 0
-0.037818 -0.024541 0
-0.032134 -0.023108 0
-0.026569 -0.021312 0
-0.021220 -0.019228 0
-0.016172 -0.016927 0
-0.011495 -0.014481 0
-0.007245 -0.011954 0
-0.003463 -0.009404 0
-0.000180 -0.006881 0
0.002590 -0.004429 0
0.004845 -0.002081 0
0.006590 0.000135 0
0.007838 0.002195 0
0.008614 0.004077 0
0.008949 0.005765 0
0.008881 0.007236 0
0.008448 0.008459 0
0.007697 0.009392 0
0.006679 0.009972 0
0.005455 0.010118 0
0.004103 0.009726 0
0.002720 0.008669 0
0.001440 0.006802 0
0.000448 0.003967 0
0.000000 0.000000 0
0.000000 0.000000 0
-0.001174 0.009442 0
-0.004324 0.018056 0
-0.009114 0.025491 0
-0.015224 0.031414 0
-0.022329 0.035564 0
-0.030099 0.037793 0
-0.038205 0.038081 0
-0.046332 0.036543 0
-0.054192 0.033400 0
-0.061533 0.028951 0
-0.068150 0.023528 0
-0.073885 0.017465 0
-0.078622 0.011075 0
-0.082289 0.004628 0
-0.084848 -0.001646 0
-0.086296 -0.007570 0
-0.086655 -0.013002 0
-0.085965 -0.017837 0
-0.084285 -0.021995 0
-0.081692 -0.025423 0
-0.078274 -0.028090 0
-0.074133 -0.029989 0
-0.069381 -0.031130 0
-0.064136 -0.031543 0
-0.058522 -0.031274 0
-0.052665 -0.030383 0
-0.046686 -0.028941 0
-0.040703 -0.027029 0
-0.034826 -0.024731 0
-0.029151 -0.022132 0
-0.023765 -0.019316 0
-0.018741 -0.016363 0
-0.014136 -0.013345 0
-0.009993 -0.010325 0
-0.006341 -0.007360 0
-0.003198 -0.004495 0
-0.000570 -0.001766 0
0.001549 0.000793 0
0.003168 0.003151 0
0.004311 0.005281 0
0.005007 0.007159 0
0.005292 0.008749 0
0.005205 0.010001 0
0.004792 0.010848 0
0.004105 0.011196 0
0.003213 0.010920 0
0.002205 0.009867 0
0.001204 0.007847 0
0.000386 0.004641 0
0.000000 0.000000 0
0.000000 -0.000000 0
-0.001230 0.011667 0
-0.004545 0.022148 0
-0.009601 0.031115 0
-0.016067 0.038240 0
-0.023611 0.043261 0
-0.031895 0.046026 0
-0.040590 0.046527 0
-0.049379 0.044898 0
-0.057974 0.041395 0
-0.066123 0.036355 0
-0.073617 0.030156 0
-0.080291 0.023176 0
-0.086018 0.015767 0
-0.090713 0.008240 0
-0.094320 0.000854 0
-0.096814 -0.006181 0
-0.098197 -0.012704 0
-0.098489 -0.018588 0
-0.097729 -0.023738 0
-0.095969 -0.028086 0
-0.093278 -0.031587 0
-0.089741 -0.034219 0
-0.085455 -0.035982 0
-0.080526 -0.036900 0
-0.075073 -0.037012 0
-0.069219 -0.036378 0
-0.063087 -0.035070 0
-0.056802 -0.033173 0
-0.050483 -0.030780 0
-0.044241 -0.027987 0
-0.038177 -0.024891 0
-0.032379 -0.021583 0
-0.026923 -0.018152 0
-0.021868 -0.014676 0
-0.017260 -0.011223 0
-0.013131 -0.007852 0
-0.009502 -0.004612 0
-0.006380 -0.001543 0
-0.003764 0.001315 0
-0.001651 0.003926 0
-0.000021 0.006255 0
0.001152 0.008261 0
0.001899 0.009892 0
0.002256 0.011072 0
0.002265 0.011697 0
0.001982 0.011627 0
0.001479 0.010678 0
0.000865 0.008620 0
0.000296 0.005171 0
0.000000 0.000000 0
0.000000 -0.000000 0
-0.001268 0.013986 0
-0.004703 0.026427 0
-0.009960 0.037014 0
-0.016706 0.045424 0
-0.024606 0.051393 0
-0.033325 0.054772 0
-0.042534 0.055565 0
-0.051920 0.053926 0
-0.061198 0.050144 0
-0.070119 0.044594 0
-0.078474 0.037695 0
-0.086091 0.029866 0
-0.092838 0.021497 0
-0.098615 0.012930 0
-0.103349 0.004455 0
-0.106992 -0.003693 0
-0.109525 -0.011327 0
-0.110945 -0.018305 0
-0.111265 -0.024515 0
-0.110515 -0.029873 0
-0.108740 -0.034318 0
-0.106002 -0.037813 0
-0.102377 -0.040345 0
-0.097958 -0.041924 0
-0.092851 -0.042581 0
-0.087170 -0.042369 0
-0.081038 -0.041358 0
-0.074582 -0.039633 0
-0.067929 -0.037292 0
-0.061200 -0.034438 0
-0.054509 -0.031178 0
-0.047962 -0.027617 0
-0.041650 -0.023857 0
-0.035652 -0.019988 0
-0.030032 -0.016096 0
-0.024840 -0.012252 0
-0.020112 -0.008517 0
-0.015872 -0.004945 0
-0.012133 -0.001578 0
-0.008900 0.001538 0
-0.006177 0.004356 0
-0.003952 0.006829 0
-0.002206 0.008897 0
-0.000916 0.010482 0
-0.000055 0.011470 0
0.000415 0.011707 0
0.000548 0.010984 0
0.000426 0.009030 0
0.000178 0.005506 0
0.000000 0.000000 0
0.000000 -0.000000 0
-0.001291 0.016370 0
-0.004805 0.030840 0
-0.010204 0.043119 0
-0.017158 0.052887 0
-0.025335 0.059879 0
-0.034405 0.063953 0
-0.044047 0.065121 0
-0.053956 0.063563 0
-0.063852 0.059595 0
-0.073493 0.053631 0
-0.082669 0.046128 0
-0.091211 0.037540 0
-0.098978 0.028291 0
-0.105860 0.018750 0
-0.111768 0.009231 0
-0.116634 -0.000004 0
-0.120411 -0.008751 0
-0.123073 -0.016848 0
-0.124608 -0.024168 0
-0.125021 -0.030611 0
-0.124330 -0.036100 0
-0.122569 -0.040582 0
-0.119793 -0.044026 0
-0.116072 -0.046427 0
-0.111496 -0.047801 0
-0.106166 -0.048190 0
-0.100199 -0.047657 0
-0.093720 -0.046282 0
-0.086858 -0.044163 0
-0.079744 -0.041407 0
-0.072502 -0.038128 0
-0.065254 -0.034442 0
-0.058108 -0.030462 0
-0.051162 -0.026294 0
-0.044499 -0.022035 0
-0.038188 -0.017772 0
-0.032285 -0.013580 0
-0.026831 -0.009523 0
-0.021857 -0.005657 0
-0.017383 -0.002030 0
-0.013424 0.001306 0
-0.009992 0.004291 0
-0.007091 0.006857 0
-0.004713 0.008921 0
-0.002849 0.010366 0
-0.001483 0.011024 0
-0.000588 0.010667 0
-0.000113 0.008989 0
0.000032 0.005597 0
0.000000 0.000000 0
0.000000 -0.000000 0
-0.001301 0.018791 0
-0.004859 0.035340 0
-0.010346 0.049367 0
-0.017438 0.060554 0
-0.025815 0.068640 0
-0.035154 0.073485 0
-0.045145 0.075115 0
-0.055493 0.073731 0
-0.065930 0.069681 0
-0.076219 0.063411 0
-0.086159 0.055413 0
-0.095579 0.046175 0
-0.104337 0.036146 0
-0.112313 0.025720 0
-0.119408 0.015229 0
-0.125533 0.004951 0
-0.130615 -0.004888 0
-0.134603 -0.014108 0
-0.137459 -0.022567 0
-0.139159 -0.030152 0
-0.139695 -0.036770 0
-0.139073 -0.042349 0
-0.137319 -0.046842 0
-0.134478 -0.050221 0
-0.130616 -0.052488 0
-0.125820 -0.053665 0
-0.120193 -0.053803 0
-0.113852 -0.052974 0
-0.106927 -0.051268 0
-0.099550 -0.048794 0
-0.091857 -0.045667 0
-0.083982 -0.042011 0
-0.076050 -0.037949 0
-0.068176 -0.033598 0
-0.060464 -0.029070 0
-0.053004 -0.024466 0
-0.045872 -0.019875 0
-0.039130 -0.015372 0
-0.032830 -0.011026 0
-0.027010 -0.006895 0
-0.021701 -0.003035 0
-0.016932 0.000496 0
-0.012729 0.003618 0
-0.009114 0.006240 0
-0.006103 0.008240 0
-0.003704 0.009446 0
-0.001924 0.009614 0
-0.000751 0.008410 0
-0.000142 0.005394 0
0.000000 -0.000000 0
0.000000 -0.000000 0
-0.001300 0.021229 0
-0.004870 0.039885 0
-0.010395 0.055698 0
-0.017564 0.068356 0
-0.026065 0.077595 0
-0.035591 0.083283 0
-0.045844 0.085460 0
-0.056542 0.084348 0
-0.067431 0.080321 0
-0.078284 0.073860 0
-0.088907 0.065487 0
-0.099134 0.055718 0
-0.108824 0.045025 0
-0.117853 0.033821 0
-0.126109 0.022451 0
-0.133491 0.011203 0
-0.139906 0.000319 0
-0.145269 -0.010005 0
-0.149517 -0.019612 0
-0.152599 -0.028375 0
-0.154479 -0.036186 0
-0.155132 -0.042958 0
-0.154555 -0.048621 0
-0.152764 -0.053129 0
-0.149797 -0.056458 0
-0.145717 -0.058613 0
-0.140610 -0.059625 0
-0.134581 -0.059548 0
-0.127751 -0.058465 0
-0.120256 -0.056476 0
-0.112234 -0.053696 0
-0.103831 -0.050250 0
-0.095185 -0.046269 0
-0.086431 -0.041880 0
-0.077691 -0.037207 0
-0.069078 -0.032364 0
-0.060690 -0.027453 0
-0.052612 -0.022565 0
-0.044916 -0.017777 0
-0.037664 -0.013158 0
-0.030909 -0.008772 0
-0.024697 -0.004682 0
-0.019075 -0.000961 0
-0.014092 0.002295 0
-0.009797 0.004956 0
-0.006237 0.006845 0
-0.003455 0.007714 0
-0.001486 0.007208 0
-0.000345 0.004846 0
0.000000 -0.000000 0
0.000000 0.000000 0
-0.001289 0.023662 0
-0.004844 0.044436 0
-0.010364 0.062060 0
-0.017550 0.076224 0
-0.026107 0.086667 0
-0.035739 0.093263 0
-0.046166 0.096066 0
-0.057121 0.095318 0
-0.068364 0.091423 0
-0.079683 0.084887 0
-0.090893 0.076264 0
-0.101835 0.066092 0
-0.112372 0.054864 0
-0.122378 0.043005 0
-0.131737 0.030868 0
-0.140337 0.018748 0
-0.148068 0.006890 0
-0.154819 -0.004498 0
-0.160495 -0.015237 0
-0.165020 -0.025190 0
-0.168329 -0.034236 0
-0.170368 -0.042273 0
-0.171100 -0.049210 0
-0.170510 -0.054980 0
-0.168605 -0.059534 0
-0.165420 -0.062852 0
-0.161016 -0.064940 0
-0.155479 -0.065833 0
-0.148920 -0.065594 0
-0.141466 -0.064311 0
-0.133259 -0.062092 0
-0.124449 -0.059061 0
-0.115188 -0.055349 0
-0.105627 -0.051092 0
-0.095908 -0.046423 0
-0.086165 -0.041468 0
-0.076520 -0.036341 0
-0.067081 -0.031147 0
-0.057945 -0.025974 0
-0.049198 -0.020902 0
-0.040918 -0.016001 0
-0.033176 -0.011338 0
-0.026043 -0.006987 0
-0.019590 -0.003038 0
-0.013901 0.000385 0
-0.009064 0.003104 0
-0.005171 0.004863 0
-0.002315 0.005300 0
-0.000575 0.003907 0
0.000000 -0.000000 0
0.000000 0.000000 0
-0.001270 0.026073 0
-0.004787 0.048960 0
-0.010263 0.068405 0
-0.017415 0.084098 0
-0.025960 0.095784 0
-0.035623 0.103342 0
-0.046136 0.106842 0
-0.057253 0.106546 0
-0.068749 0.102883 0
-0.080426 0.096389 0
-0.092112 0.087639 0
-0.103659 0.077197 0
-0.114934 0.065569 0
-0.125815 0.053187 0
-0.136185 0.040410 0
-0.145924 0.027533 0
-0.154911 0.014800 0
-0.163021 0.002423 0
-0.170129 -0.009410 0
-0.176122 -0.020541 0
-0.180910 -0.030839 0
-0.184411 -0.040187 0
-0.186557 -0.048479 0
-0.187298 -0.055624 0
-0.186606 -0.061548 0
-0.184484 -0.066202 0
-0.180963 -0.069565 0
-0.176103 -0.071645 0
-0.169996 -0.072479 0
-0.162757 -0.072137 0
-0.154526 -0.070713 0
-0.145452 -0.068321 0
-0.135699 -0.065090 0
-0.125429 -0.061160 0
-0.114806 -0.056669 0
-0.103983 -0.051752 0
-0.093106 -0.046538 0
-0.082310 -0.041140 0
-0.071717 -0.035659 0
-0.061439 -0.030185 0
-0.051581 -0.024794 0
-0.042241 -0.019558 0
-0.033519 -0.014547 0
-0.025519 -0.009847 0
-0.018352 -0.005571 0
-0.012149 -0.001885 0
-0.007055 0.000965 0
-0.003229 0.002612 0
-0.000831 0.002531 0
0.000000 -0.000000 0
0.000000 0.000000 0
-0.001245 0.028449 0
-0.004703 0.053428 0
-0.010102 0.074688 0
-0.017173 0.091922 0
-0.025649 0.104875 0
-0.035270 0.113439 0
-0.045786 0.117696 0
-0.056970 0.117931 0
-0.068614 0.114596 0
-0.080536 0.108251 0
-0.092579 0.099496 0
-0.104604 0.088914 0
-0.116489 0.077020 0
-0.128119 0.064256 0
-0.139378 0.050977 0
-0.150146 0.037474 0
-0.160295 0.023986 0
-0.169688 0.010720 0
-0.178183 -0.002137 0
-0.185632 -0.014409 0
-0.191912 -0.025947 0
-0.196917 -0.036625 0
-0.200548 -0.046324 0
-0.202720 -0.054931 0
-0.203370 -0.062348 0
-0.202463 -0.068496 0
-0.199994 -0.073321 0
-0.195993 -0.076800 0
-0.190526 -0.078939 0
-0.183689 -0.079781 0
-0.175609 -0.079397 0
-0.166435 -0.077887 0
-0.156333 -0.075372 0
-0.145478 -0.071985 0
-0.134048 -0.067869 0
-0.122221 -0.063167 0
-0.110166 -0.058014 0
-0.098043 -0.052536 0
-0.086003 -0.046845 0
-0.074185 -0.041038 0
-0.062723 -0.035199 0
-0.051746 -0.029400 0
-0.041384 -0.023710 0
-0.031774 -0.018205 0
-0.023066 -0.012984 0
-0.015433 -0.008193 0
-0.009074 -0.004057 0
-0.004216 -0.000925 0
-0.001109 0.000678 0
0.000000 -0.000000 0
0.000000 0.000000 0
-0.001215 0.030776 0
-0.004598 0.057817 0
-0.009893 0.080875 0
-0.016843 0.099645 0
-0.025196 0.113880 0
-0.034709 0.123480 0
-0.045150 0.128543 0
-0.056309 0.129374 0
-0.067997 0.126449 0
-0.080049 0.120353 0
-0.092321 0.111707 0
-0.104690 0.101108 0
-0.117044 0.089083 0
-0.129276 0.076075 0
-0.141277 0.062437 0
-0.152932 0.048450 0
-0.164111 0.034343 0
-0.174673 0.020311 0
-0.184462 0.006533 0
-0.193313 -0.006812 0
-0.201062 -0.019554 0
-0.207573 -0.031551 0
-0.212721 -0.042676 0
-0.216391 -0.052801 0
-0.218482 -0.061805 0
-0.218918 -0.069579 0
-0.217657 -0.076035 0
-0.214691 -0.081113 0
-0.210051 -0.084783 0
-0.203808 -0.087054 0
-0.196069 -0.087967 0
-0.186974 -0.087597 0
-0.176688 -0.086048 0
-0.165393 -0.083444 0
-0.153283 -0.079925 0
-0.140553 -0.075634 0
-0.127398 -0.070716 0
-0.114005 -0.065303 0
-0.100554 -0.059517 0
-0.087216 -0.053465 0
-0.074153 -0.047233 0
-0.061528 -0.040897 0
-0.049502 -0.034520 0
-0.038249 -0.028165 0
-0.027960 -0.021911 0
-0.018853 -0.015876 0
-0.011185 -0.010252 0
-0.005255 -0.005354 0
-0.001404 -0.001685 0
0.000000 -0.000000 0
0.000000 0.000000 0
-0.001181 0.033047 0
-0.004478 0.062106 0
-0.009645 0.086932 0
-0.016440 0.107225 0
-0.024625 0.122741 0
-0.033971 0.133394 0
-0.044264 0.139297 0
-0.055311 0.140778 0
-0.066941 0.138335 0
-0.079006 0.132575 0
-0.091381 0.124138 0
-0.103953 0.113636 0
-0.116624 0.101606 0
-0.129299 0.088489 0
-0.141878 0.074633 0
-0.154252 0.060308 0
-0.166299 0.045728 0
-0.177876 0.031071 0
-0.188825 0.016504 0
-0.198971 0.002190 0
-0.208125 -0.011688 0
-0.216105 -0.024966 0