# vtk DataFile Version 2.0
generated by CFD-lab course output (written by Tobias Neckel) 
ASCII

DATASET STRUCTURED_GRID
DIMENSIONS  51 51 1 
POINTS 2601 float

0.000000 0.000000 0
0.020000 0.000000 0
0.040000 0.000000 0
0.060000 0.000000 0
0.080000 0.000000 0
0.100000 0.000000 0
0.120000 0.000000 0
0.140000 0.000000 0
0.160000 0.000000 0
0.180000 0.000000 0
0.200000 0.000000 0
0.220000 0.000000 0
0.240000 0.000000 0
0.260000 0.000000 0
0.280000 0.000000 0
0.300000 0.000000 0
0.320000 0.000000 0
0.340000 0.000000 0
0.360000 0.000000 0
0.380000 0.000000 0
0.400000 0.000000 0
0.420000 0.000000 0
0.440000 0.000000 0
0.460000 0.000000 0
0.480000 0.000000 0
0.500000 0.000000 0
0.520000 0.000000 0
0.540000 0.000000 0
0.560000 0.000000 0
0.580000 0.000000 0
0.600000 0.000000 0
0.620000 0.000000 0
0.640000 0.000000 0
0.660000 0.000000 0
0.680000 0.000000 0
0.700000 0.000000 0
0.720000 0.000000 0
0.740000 0.000000 0
0.760000 0.000000 0
0.780000 0.000000 0
0.800000 0.000000 0
0.820000 0.000000 0
0.840000 0.000000 0
0.860000 0.000000 0
0.880000 0.000000 0
0.900000 0.000000 0
0.920000 0.000000 0
0.940000 0.000000 0
0.960000 0.000000 0
0.980000 0.000000 0
1.000000 0.000000 0
0.000000 0.020000 0
0.020000 0.020000 0
0.040000 0.020000 0
0.060000 0.020000 0
0.080000 0.020000 0
0.100000 0.020000 0
0.120000 0.020000 0
0.140000 0.020000 0
0.160000 0.020000 0
0.180000 0.020000 0
0.200000 0.020000 0
0.220000 0.020000 0
0.240000 0.020000 0
0.260000 0.020000 0
0.280000 0.020000 0
0.300000 0.020000 0
0.320000 0.020000 0
0.340000 0.020000 0
0.360000 0.020000 0
0.380000 0.020000 0
0.400000 0.020000 0
0.420000 0.020000 0
0.440000 0.020000 0
0.460000 0.020000 0
0.480000 0.020000 0
0.500000 0.020000 0
0.520000 0.020000 0
0.540000 0.020000 0
0.560000 0.020000 0
0.580000 0.020000 0
0.600000 0.020000 0
0.620000 0.020000 0
0.640000 0.020000 0
0.660000 0.020000 0
0.680000 0.020000 0
0.700000 0.020000 0
0.720000 0.020000 0
0.740000 0.020000 0
0.760000 0.020000 0
0.780000 0.020000 0
0.800000 0.020000 0
0.820000 0.020000 0
0.840000 0.020000 0
0.860000 0.020000 0
0.880000 0.020000 0
0.900000 0.020000 0
0.920000 0.020000 0
0.940000 0.020000 0
0.960000 0.020000 0
0.980000 0.020000 0
1.000000 0.020000 0
0.000000 0.040000 0
0.020000 0.040000 0
0.040000 0.040000 0
0.060000 0.040000 0
0.080000 0.040000 0
0.100000 0.040000 0
0.120000 0.040000 0
0.140000 0.040000 0
0.160000 0.040000 0
0.180000 0.040000 0
0.200000 0.040000 0
0.220000 0.040000 0
0.240000 0.040000 0
0.260000 0.040000 0
0.280000 0.040000 0
0.300000 0.040000 0
0.320000 0.040000 0
0.340000 0.040000 0
0.360000 0.040000 0
0.380000 0.040000 0
0.400000 0.040000 0
0.420000 0.040000 0
0.440000 0.040000 0
0.460000 0.040000 0
0.480000 0.040000 0
0.500000 0.040000 0
0.520000 0.040000 0
0.540000 0.040000 0
0.560000 0.040000 0
0.580000 0.040000 0
0.600000 0.040000 0
0.620000 0.040000 0
0.640000 0.040000 0
0.660000 0.040000 0
0.680000 0.040000 0
0.700000 0.040000 0
0.720000 0.040000 0
0.740000 0.040000 0
0.760000 0.040000 0
0.780000 0.040000 0
0.800000 0.040000 0
0.820000 0.040000 0
0.840000 0.040000 0
0.860000 0.040000 0
0.880000 0.040000 0
0.900000 0.040000 0
0.920000 0.040000 0
0.940000 0.040000 0
0.960000 0.040000 0
0.980000 0.040000 0
1.000000 0.040000 0
0.000000 0.060000 0
0.020000 0.060000 0
0.040000 0.060000 0
0.060000 0.060000 0
0.080000 0.060000 0
0.100000 0.060000 0
0.120000 0.060000 0
0.140000 0.060000 0
0.160000 0.060000 0
0.180000 0.060000 0
0.200000 0.060000 0
0.220000 0.060000 0
0.240000 0.060000 0
0.260000 0.060000 0
0.280000 0.060000 0
0.300000 0.060000 0
0.320000 0.060000 0
0.340000 0.060000 0
0.360000 0.060000 0
0.380000 0.060000 0
0.400000 0.060000 0
0.420000 0.060000 0
0.440000 0.060000 0
0.460000 0.060000 0
0.480000 0.060000 0
0.500000 0.060000 0
0.520000 0.060000 0
0.540000 0.060000 0
0.560000 0.060000 0
0.580000 0.060000 0
0.600000 0.060000 0
0.620000 0.060000 0
0.640000 0.060000 0
0.660000 0.060000 0
0.680000 0.060000 0
0.700000 0.060000 0
0.720000 0.060000 0
0.740000 0.060000 0
0.760000 0.060000 0
0.780000 0.060000 0
0.800000 0.060000 0
0.820000 0.060000 0
0.840000 0.060000 0
0.860000 0.060000 0
0.880000 0.060000 0
0.900000 0.060000 0
0.920000 0.060000 0
0.940000 0.060000 0
0.960000 0.060000 0
0.980000 0.060000 0
1.000000 0.060000 0
0.000000 0.080000 0
0.020000 0.080000 0
0.040000 0.080000 0
0.060000 0.080000 0
0.080000 0.080000 0
0.100000 0.080000 0
0.120000 0.080000 0
0.140000 0.080000 0
0.160000 0.080000 0
0.180000 0.080000 0
0.200000 0.080000 0
0.220000 0.080000 0
0.240000 0.080000 0
0.260000 0.080000 0
0.280000 0.080000 0
0.300000 0.080000 0
0.320000 0.080000 0
0.340000 0.080000 0
0.360000 0.080000 0
0.380000 0.080000 0
0.400000 0.080000 0
0.420000 0.080000 0
0.440000 0.080000 0
0.460000 0.080000 0
0.480000 0.080000 0
0.500000 0.080000 0
0.520000 0.080000 0
0.540000 0.080000 0
0.560000 0.080000 0
0.580000 0.080000 0
0.600000 0.080000 0
0.620000 0.080000 0
0.640000 0.080000 0
0.660000 0.080000 0
0.680000 0.080000 0
0.700000 0.080000 0
0.720000 0.080000 0
0.740000 0.080000 0
0.760000 0.080000 0
0.780000 0.080000 0
0.800000 0.080000 0
0.820000 0.080000 0
0.840000 0.080000 0
0.860000 0.080000 0
0.880000 0.080000 0
0.900000 0.080000 0
0.920000 0.080000 0
0.940000 0.080000 0
0.960000 0.080000 0
0.980000 0.080000 0
1.000000 0.080000 0
0.000000 0.100000 0
0.020000 0.100000 0
0.040000 0.100000 0
0.060000 0.100000 0
0.080000 0.100000 0
0.100000 0.100000 0
0.120000 0.100000 0
0.140000 0.100000 0
0.160000 0.100000 0
0.180000 0.100000 0
0.200000 0.100000 0
0.220000 0.100000 0
0.240000 0.100000 0
0.260000 0.100000 0
0.280000 0.100000 0
0.300000 0.100000 0
0.320000 0.100000 0
0.340000 0.100000 0
0.360000 0.100000 0
0.380000 0.100000 0
0.400000 0.100000 0
0.420000 0.100000 0
0.440000 0.100000 0
0.460000 0.100000 0
0.480000 0.100000 0
0.500000 0.100000 0
0.520000 0.100000 0
0.540000 0.100000 0
0.560000 0.100000 0
0.580000 0.100000 0
0.600000 0.100000 0
0.620000 0.100000 0
0.640000 0.100000 0
0.660000 0.100000 0
0.680000 0.100000 0
0.700000 0.100000 0
0.720000 0.100000 0
0.740000 0.100000 0
0.760000 0.100000 0
0.780000 0.100000 0
0.800000 0.100000 0
0.820000 0.100000 0
0.840000 0.100000 0
0.860000 0.100000 0
0.880000 0.100000 0
0.900000 0.100000 0
0.920000 0.100000 0
0.940000 0.100000 0
0.960000 0.100000 0
0.980000 0.100000 0
1.000000 0.100000 0
0.000000 0.120000 0
0.020000 0.120000 0
0.040000 0.120000 0
0.060000 0.120000 0
0.080000 0.120000 0
0.100000 0.120000 0
0.120000 0.120000 0
0.140000 0.120000 0
0.160000 0.120000 0
0.180000 0.120000 0
0.200000 0.120000 0
0.220000 0.120000 0
0.240000 0.120000 0
0.260000 0.120000 0
0.280000 0.120000 0
0.300000 0.120000 0
0.320000 0.120000 0
0.340000 0.120000 0
0.360000 0.120000 0
0.380000 0.120000 0
0.400000 0.120000 0
0.420000 0.120000 0
0.440000 0.120000 0
0.460000 0.120000 0
0.480000 0.120000 0
0.500000 0.120000 0
0.520000 0.120000 0
0.540000 0.120000 0
0.560000 0.120000 0
0.580000 0.120000 0
0.600000 0.120000 0
0.620000 0.120000 0
0.640000 0.120000 0
0.660000 0.120000 0
0.680000 0.120000 0
0.700000 0.120000 0
0.720000 0.120000 0
0.740000 0.120000 0
0.760000 0.120000 0
0.780000 0.120000 0
0.800000 0.120000 0
0.820000 0.120000 0
0.840000 0.120000 0
0.860000 0.120000 0
0.880000 0.120000 0
0.900000 0.120000 0
0.920000 0.120000 0
0.940000 0.120000 0
0.960000 0.120000 0
0.980000 0.120000 0
1.000000 0.120000 0
0.000000 0.140000 0
0.020000 0.140000 0
0.040000 0.140000 0
0.060000 0.140000 0
0.080000 0.140000 0
0.100000 0.140000 0
0.120000 0.140000 0
0.140000 0.140000 0
0.160000 0.140000 0
0.180000 0.140000 0
0.200000 0.140000 0
0.220000 0.140000 0
0.240000 0.140000 0
0.260000 0.140000 0
0.280000 0.140000 0
0.300000 0.140000 0
0.320000 0.140000 0
0.340000 0.140000 0
0.360000 0.140000 0
0.380000 0.140000 0
0.400000 0.140000 0
0.420000 0.140000 0
0.440000 0.140000 0
0.460000 0.140000 0
0.480000 0.140000 0
0.500000 0.140000 0
0.520000 0.140000 0
0.540000 0.140000 0
0.560000 0.140000 0
0.580000 0.140000 0
0.600000 0.140000 0
0.620000 0.140000 0
0.640000 0.140000 0
0.660000 0.140000 0
0.680000 0.140000 0
0.700000 0.140000 0
0.720000 0.140000 0
0.740000 0.140000 0
0.760000 0.140000 0
0.780000 0.140000 0
0.800000 0.140000 0
0.820000 0.140000 0
0.840000 0.140000 0
0.860000 0.140000 0
0.880000 0.140000 0
0.900000 0.140000 0
0.920000 0.140000 0
0.940000 0.140000 0
0.960000 0.140000 0
0.980000 0.140000 0
1.000000 0.140000 0
0.000000 0.160000 0
0.020000 0.160000 0
0.040000 0.160000 0
0.060000 0.160000 0
0.080000 0.160000 0
0.100000 0.160000 0
0.120000 0.160000 0
0.140000 0.160000 0
0.160000 0.160000 0
0.180000 0.160000 0
0.200000 0.160000 0
0.220000 0.160000 0
0.240000 0.160000 0
0.260000 0.160000 0
0.280000 0.160000 0
0.300000 0.160000 0
0.320000 0.160000 0
0.340000 0.160000 0
0.360000 0.160000 0
0.380000 0.160000 0
0.400000 0.160000 0
0.420000 0.160000 0
0.440000 0.160000 0
0.460000 0.160000 0
0.480000 0.160000 0
0.500000 0.160000 0
0.520000 0.160000 0
0.540000 0.160000 0
0.560000 0.160000 0
0.580000 0.160000 0
0.600000 0.160000 0
0.620000 0.160000 0
0.640000 0.160000 0
0.660000 0.160000 0
0.680000 0.160000 0
0.700000 0.160000 0
0.720000 0.160000 0
0.740000 0.160000 0
0.760000 0.160000 0
0.780000 0.160000 0
0.800000 0.160000 0
0.820000 0.160000 0
0.840000 0.160000 0
0.860000 0.160000 0
0.880000 0.160000 0
0.900000 0.160000 0
0.920000 0.160000 0
0.940000 0.160000 0
0.960000 0.160000 0
0.980000 0.160000 0
1.000000 0.160000 0
0.000000 0.180000 0
0.020000 0.180000 0
0.040000 0.180000 0
0.060000 0.180000 0
0.080000 0.180000 0
0.100000 0.180000 0
0.120000 0.180000 0
0.140000 0.180000 0
0.160000 0.180000 0
0.180000 0.180000 0
0.200000 0.180000 0
0.220000 0.180000 0
0.240000 0.180000 0
0.260000 0.180000 0
0.280000 0.180000 0
0.300000 0.180000 0
0.320000 0.180000 0
0.340000 0.180000 0
0.360000 0.180000 0
0.380000 0.180000 0
0.400000 0.180000 0
0.420000 0.180000 0
0.440000 0.180000 0
0.460000 0.180000 0
0.480000 0.180000 0
0.500000 0.180000 0
0.520000 0.180000 0
0.540000 0.180000 0
0.560000 0.180000 0
0.580000 0.180000 0
0.600000 0.180000 0
0.620000 0.180000 0
[...]
POINT_DATA 2601 

VECTORS velocity float
0.000000 0.000000 0
0.000001 0.000000 0
0.000000 0.000000 0
-0.000000 0.000000 0
-0.000000 0.000000 0
-0.000000 0.000000 0
-0.000000 0.000000 0
0.000000 0.000000 0
0.000000 0.000000 0
0.000000 0.000000 0
0.000000 0.000000 0
0.000000 0.000000 0
-0.000000 0.000000 0
-0.000000 0.000000 0
-0.000000 0.000000 0
-0.000000 0.000000 0
-0.000000 0.000000 0
-0.000000 0.000000 0
-0.000000 0.000000 0
-0.000000 0.000000 0
-0.000000 0.000000 0
-0.000000 0.000000 0
-0.000000 0.000000 0
-0.000000 0.000000 0
-0.000000 0.000000 0
-0.000000 0.000000 0
0.000000 0.000000 0
0.000000 0.000000 0
0.000000 0.000000 0
0.000000 0.000000 0
0.000000 0.000000 0
0.000000 0.000000 0
0.000000 0.000000 0
0.000000 0.000000 0
0.000000 0.000000 0
0.000000 0.000000 0
0.000000 0.000000 0
0.000000 0.000000 0
0.000000 0.000000 0
0.000000 0.000000 0
0.000000 0.000000 0
0.000000 0.000000 0
0.000000 0.000000 0
0.000000 0.000000 0
0.000000 0.000000 0
0.000000 0.000000 0
0.000000 0.000000 0
0.000000 0.000000 0
0.000000 0.000000 0
0.000000 0.000000 0
0.000000 0.000000 0
0.000000 0.000001 0
-0.000005 0.000011 0
-0.000355 0.000248 0
-0.001131 0.000511 0
-0.002296 0.000730 0
-0.003758 0.000878 0
-0.005400 0.000950 0
-0.007096 0.000945 0
-0.008729 0.000873 0
-0.010195 0.000746 0
-0.011411 0.000577 0
-0.012317 0.000382 0
-0.012880 0.000176 0
-0.013085 -0.000030 0
-0.012939 -0.000226 0
-0.012461 -0.000405 0
-0.011682 -0.000561 0
-0.010641 -0.000691 0
-0.009385 -0.000792 0
-0.007961 -0.000866 0
-0.006416 -0.000911 0
-0.004800 -0.000929 0
-0.003156 -0.000923 0
-0.001527 -0.000895 0
0.000050 -0.000848 0
0.001541 -0.000784 0
0.002919 -0.000708 0
0.004163 -0.000623 0
0.005257 -0.000532 0
0.006190 -0.000437 0
0.006956 -0.000341 0
0.007553 -0.000246 0
0.007983 -0.000154 0
0.008251 -0.000065 0
0.008363 0.000018 0
0.008329 0.000095 0
0.008158 0.000167 0
0.007860 0.000232 0
0.007447 0.000292 0
0.006929 0.000346 0
0.006318 0.000393 0
0.005626 0.000434 0
0.004867 0.000466 0
0.004059 0.000487 0
0.003226 0.000493 0
0.002396 0.000478 0
0.001611 0.000434 0
0.000921 0.000351 0
0.000389 0.000225 0
0.000074 0.000073 0
0.000000 -0.000000 0
0.000000 0.000000 0
-0.000229 0.000356 0
-0.001095 0.001125 0
-0.002641 0.001940 0
-0.004800 0.002626 0
-0.007432 0.003103 0
-0.010354 0.003338 0
-0.013370 0.003330 0
-0.016288 0.003099 0
-0.018935 0.002682 0
-0.021170 0.002122 0
-0.022890 0.001469 0
-0.024029 0.000768 0
-0.024559 0.000059 0
-0.024481 -0.000625 0
-0.023820 -0.001258 0
-0.022624 -0.001819 0
-0.020954 -0.002296 0
-0.018882 -0.002681 0
-0.016487 -0.002969 0
-0.013850 -0.003161 0
-0.011052 -0.003261 0
-0.008172 -0.003273 0
-0.005284 -0.003206 0
-0.002457 -0.003068 0
0.000250 -0.002870 0
0.002784 -0.002622 0
0.005102 -0.002338 0
0.007172 -0.002027 0
0.008970 -0.001699 0
0.010480 -0.001363 0
0.011698 -0.001027 0
0.012620 -0.000698 0
0.013254 -0.000380 0
0.013608 -0.000078 0
0.013696 0.000206 0
0.013534 0.000469 0
0.013139 0.000711 0
0.012532 0.000931 0
0.011732 0.001129 0
0.010759 0.001303 0
0.009638 0.001451 0
0.008394 0.001567 0
0.007060 0.001642 0
0.005675 0.001664 0
0.004291 0.001615 0
0.002972 0.001474 0
0.001795 0.001221 0
0.000850 0.000848 0
0.000227 0.000389 0
0.000000 -0.000000 0
0.000000 -0.000000 0
-0.000475 0.001105 0
-0.001878 0.002659 0
-0.004157 0.004216 0
-0.007199 0.005521 0
-0.010826 0.006433 0
-0.014814 0.006889 0
-0.018923 0.006879 0
-0.022914 0.006438 0
-0.026572 0.005627 0
-0.029715 0.004532 0
-0.032209 0.003242 0
-0.033962 0.001845 0
-0.034929 0.000421 0
-0.035102 -0.000965 0
-0.034508 -0.002261 0
-0.033196 -0.003427 0
-0.031237 -0.004432 0
-0.028718 -0.005260 0
-0.025733 -0.005898 0
-0.022385 -0.006346 0
-0.018777 -0.006607 0
-0.015010 -0.006691 0
-0.011184 -0.006610 0
-0.007389 -0.006382 0
-0.003708 -0.006026 0
-0.000213 -0.005561 0
0.003033 -0.005011 0
0.005977 -0.004399 0
0.008583 -0.003746 0
0.010825 -0.003069 0
0.012687 -0.002386 0
0.014163 -0.001710 0
0.015256 -0.001053 0
0.015973 -0.000424 0
0.016330 0.000169 0
0.016344 0.000723 0
0.016040 0.001234 0
0.015441 0.001700 0
0.014573 0.002119 0
0.013467 0.002487 0
0.012152 0.002799 0
0.010665 0.003044 0
0.009047 0.003206 0
0.007349 0.003262 0
0.005634 0.003182 0
0.003978 0.002930 0
0.002473 0.002473 0
0.001226 0.001793 0
0.000355 0.000924 0
0.000000 -0.000000 0
0.000000 -0.000000 0
-0.000689 0.002232 0
-0.002578 0.004806 0
-0.005524 0.007262 0
-0.009355 0.009296 0
-0.013855 0.010719 0
-0.018772 0.011436 0
-0.023833 0.011430 0
-0.028772 0.010748 0
-0.033344 0.009482 0
-0.037342 0.007759 0
-0.040606 0.005716 0
-0.043027 0.003488 0
-0.044542 0.001199 0
-0.045134 -0.001046 0
-0.044821 -0.003164 0
-0.043652 -0.005090 0
-0.041697 -0.006774 0
-0.039046 -0.008185 0
-0.035801 -0.009302 0
-0.032072 -0.010118 0
-0.027976 -0.010635 0
-0.023629 -0.010866 0
-0.019145 -0.010827 0
-0.014633 -0.010544 0
-0.010192 -0.010046 0
-0.005913 -0.009362 0
-0.001875 -0.008528 0
0.001855 -0.007578 0
0.005223 -0.006547 0
0.008187 -0.005467 0
0.010721 -0.004365 0
0.012811 -0.003266 0
0.014452 -0.002190 0
0.015649 -0.001152 0
0.016415 -0.000166 0
0.016766 0.000759 0
0.016727 0.001614 0
0.016325 0.002397 0
0.015592 0.003103 0
0.014560 0.003725 0
0.013267 0.004253 0
0.011753 0.004672 0
0.010066 0.004957 0
0.008263 0.005076 0
0.006410 0.004986 0
0.004591 0.004635 0
0.002905 0.003974 0
0.001471 0.002966 0
0.000438 0.001615 0
0.000000 0.000000 0
0.000000 -0.000000 0
-0.000860 0.003682 0
-0.003165 0.007494 0
-0.006694 0.010994 0
-0.011223 0.013853 0
-0.016499 0.015850 0
-0.022244 0.016867 0
-0.028164 0.016880 0
-0.033973 0.015948 0
-0.039406 0.014197 0
-0.044239 0.011794 0
-0.048295 0.008927 0
-0.051448 0.005781 0
-0.053621 0.002528 0
-0.054784 -0.000686 0
-0.054946 -0.003743 0
-0.054147 -0.006551 0
-0.052452 -0.009039 0
-0.049945 -0.011156 0
-0.046728 -0.012872 0
-0.042912 -0.014170 0
-0.038616 -0.015050 0
-0.033962 -0.015522 0
-0.029073 -0.015607 0
-0.024069 -0.015336 0
-0.019064 -0.014745 0
-0.014162 -0.013878 0
-0.009457 -0.012779 0
-0.005030 -0.011497 0
-0.000950 -0.010077 0
0.002727 -0.008567 0
0.005960 -0.007010 0
0.008722 -0.005441 0
0.010999 -0.003892 0
0.012788 -0.002387 0
0.014096 -0.000947 0
0.014936 0.000411 0
0.015330 0.001675 0
0.015306 0.002835 0
0.014895 0.003884 0
0.014133 0.004812 0
0.013060 0.005606 0
0.011719 0.006244 0
0.010160 0.006696 0
0.008440 0.006918 0
0.006628 0.006853 0
0.004808 0.006436 0
0.003082 0.005593 0
0.001582 0.004260 0
0.000478 0.002395 0
0.000000 0.000000 0
0.000000 -0.000000 0
-0.000993 0.005397 0
-0.003641 0.010641 0
-0.007667 0.015321 0
-0.012804 0.019101 0
-0.018768 0.021740 0
-0.025258 0.023101 0
-0.031965 0.023159 0
-0.038588 0.021989 0
-0.044850 0.019749 0
-0.050515 0.016648 0
-0.055394 0.012924 0
-0.059345 0.008814 0
-0.062281 0.004535 0
-0.064156 0.000280 0
-0.064967 -0.003800 0
-0.064741 -0.007584 0
-0.063533 -0.010976 0
-0.061418 -0.013908 0
-0.058487 -0.016335 0
-0.054846 -0.018231 0
-0.050609 -0.019586 0
-0.045898 -0.020408 0
-0.040838 -0.020720 0
-0.035555 -0.020553 0
-0.030170 -0.019953 0
-0.024798 -0.018969 0
-0.019546 -0.017660 0
-0.014509 -0.016085 0
-0.009771 -0.014304 0
-0.005399 -0.012378 0
-0.001450 -0.010361 0
0.002034 -0.008305 0
0.005026 -0.006255 0
0.007512 -0.004249 0
0.009487 -0.002314 0
0.010962 -0.000476 0
0.011950 0.001245 0
0.012475 0.002833 0
0.012566 0.004275 0
0.012259 0.005559 0
0.011594 0.006667 0
0.010614 0.007572 0
0.009367 0.008236 0
0.007909 0.008608 0
0.006306 0.008618 0
0.004641 0.008181 0
0.003017 0.007199 0
0.001569 0.005570 0
0.000480 0.003197 0
0.000000 0.000000 0
0.000000 -0.000000 0
-0.001095 0.007323 0
-0.004018 0.014169 0
-0.008459 0.020157 0
-0.014116 0.024954 0
-0.020683 0.028304 0
-0.027842 0.030064 0
-0.035271 0.030209 0
-0.042660 0.028833 0
-0.049726 0.026125 0
-0.056223 0.022338 0
-0.061953 0.017757 0
-0.066765 0.012669 0
-0.070557 0.007339 0
-0.073270 0.002000 0
-0.074883 -0.003158 0
-0.075412 -0.007984 0
-0.074895 -0.012362 0
-0.073391 -0.016202 0
-0.070980 -0.019444 0
-0.067752 -0.022049 0
-0.063814 -0.023998 0
-0.059279 -0.025292 0
-0.054269 -0.025950 0
-0.048908 -0.026004 0
-0.043322 -0.025502 0
-0.037632 -0.024502 0
-0.031956 -0.023068 0
-0.026400 -0.021272 0
-0.021061 -0.019188 0
-0.016023 -0.016888 0
-0.011357 -0.014443 0
-0.007117 -0.011917 0
-0.003347 -0.009369 0
-0.000075 -0.006848 0
0.002684 -0.004397 0
0.004928 -0.002052 0
0.006662 0.000162 0
0.007900 0.002219 0
0.008666 0.004099 0
0.008992 0.005784 0
0.008915 0.007252 0
0.008475 0.008472 0
0.007717 0.009401 0
0.006693 0.009978 0
0.005465 0.010121 0
0.004108 0.009725 0
0.002723 0.008665 0
0.001441 0.006797 0
0.000448 0.003964 0
0.000000 0.000000 0
0.000000 0.000000 0
-0.001171 0.009416 0
-0.004312 0.018006 0
-0.009090 0.025419 0
-0.015184 0.031325 0
-0.022270 0.035464 0
-0.030021 0.037687 0
-0.038106 0.037977 0
-0.046213 0.036445 0
-0.054053 0.033312 0
-0.061376 0.028875 0
-0.067977 0.023466 0
-0.073698 0.017417 0
-0.078422 0.011040 0
-0.082078 0.004605 0
-0.084628 -0.001658 0
-0.086069 -0.007572 0
-0.086422 -0.012996 0
-0.085727 -0.017823 0
-0.084045 -0.021974 0
-0.081450 -0.025396 0
-0.078032 -0.028059 0
-0.073892 -0.029953 0
-0.069142 -0.031091 0
-0.063901 -0.031500 0
-0.058293 -0.031228 0
-0.052442 -0.030335 0
-0.046471 -0.028893 0
-0.040497 -0.026980 0
-0.034629 -0.024681 0
-0.028965 -0.022082 0
-0.023591 -0.019267 0
-0.018578 -0.016315 0
-0.013985 -0.013298 0
-0.009855 -0.010280 0
-0.006217 -0.007317 0
-0.003087 -0.004454 0
-0.000471 -0.001727 0
0.001635 0.000829 0
0.003242 0.003183 0
0.004373 0.005310 0
0.005058 0.007184 0
0.005333 0.008770 0
0.005237 0.010018 0
0.004815 0.010861 0
0.004122 0.011203 0
0.003223 0.010924 0
0.002210 0.009867 0
0.001206 0.007844 0
0.000387 0.004638 0
0.000000 0.000000 0
0.000000 0.000000 0
-0.001227 0.011635 0
-0.004533 0.022087 0
-0.009577 0.031029 0
-0.016027 0.038134 0
-0.023552 0.043141 0
-0.031816 0.045900 0
-0.040490 0.046402 0
-0.049258 0.044780 0
-0.057832 0.041288 0
-0.065962 0.036262 0
-0.073439 0.030078 0
-0.080096 0.023113 0
-0.085809 0.015720 0
-0.090491 0.008206 0
-0.094087 0.000833 0
-0.096572 -0.006191 0
-0.097947 -0.012704 0
-0.098232 -0.018579 0
-0.097467 -0.023722 0
-0.095703 -0.028062 0
-0.093010 -0.031556 0
-0.089472 -0.034182 0
-0.085186 -0.035941 0
-0.080260 -0.036854 0
-0.074811 -0.036962 0
-0.068961 -0.036324 0
-0.062836 -0.035013 0
-0.056560 -0.033114 0
-0.050250 -0.030720 0
-0.044019 -0.027926 0
-0.037967 -0.024829 0
-0.032182 -0.021522 0
-0.026738 -0.018092 0
-0.021697 -0.014617 0
-0.017104 -0.011166 0
-0.012990 -0.007797 0
-0.009376 -0.004559 0
-0.006269 -0.001494 0
-0.003668 0.001361 0
-0.001569 0.003968 0
0.000048 0.006292 0
0.001208 0.008293 0
0.001943 0.009919 0
0.002289 0.011093 0
0.002289 0.011712 0
0.001997 0.011637 0
0.001488 0.010683 0
0.000869 0.008620 0
0.000297 0.005170 0
0.000000 0.000000 0
0.000000 0.000000 0
-0.001265 0.013949 0
-0.004691 0.026356 0
-0.009936 0.036913 0
-0.016666 0.045300 0
-0.024548 0.051253 0
-0.033246 0.054625 0
-0.042433 0.055418 0
-0.051797 0.053787 0
-0.061055 0.050017 0
-0.069956 0.044482 0
-0.078292 0.037600 0
-0.085892 0.029788 0
-0.092624 0.021435 0
-0.098386 0.012884 0
-0.103107 0.004422 0
-0.106739 -0.003713 0
-0.109262 -0.011336 0
-0.110674 -0.018303 0
-0.110986 -0.024504 0
-0.110231 -0.029853 0
-0.108451 -0.034290 0
-0.105710 -0.037777 0
-0.102084 -0.040303 0
-0.097666 -0.041876 0
-0.092560 -0.042527 0
-0.086882 -0.042310 0
-0.080756 -0.041294 0
-0.074308 -0.039566 0
-0.067663 -0.037222 0
-0.060944 -0.034365 0
-0.054265 -0.031104 0
-0.047731 -0.027543 0
-0.041433 -0.023782 0
-0.035450 -0.019914 0
-0.029846 -0.016023 0
-0.024670 -0.012181 0
-0.019959 -0.008449 0
-0.015736 -0.004880 0
-0.012013 -0.001517 0
-0.008797 0.001595 0
-0.006090 0.004408 0
-0.003880 0.006874 0
-0.002149 0.008936 0
-0.000873 0.010514 0
-0.000024 0.011496 0
0.000436 0.011725 0
0.000560 0.010995 0
0.000431 0.009035 0
0.000180 0.005507 0
0.000000 0.000000 0
0.000000 0.000000 0
-0.001288 0.016327 0
-0.004794 0.030758 0
-0.010181 0.043003 0
-0.017119 0.052745 0
-0.025277 0.059720 0
-0.034327 0.063785 0
-0.043948 0.064953 0
-0.053835 0.063402 0
-0.063710 0.059447 0
-0.073330 0.053499 0
-0.082488 0.046014 0
-0.091011 0.037445 0
-0.098762 0.028214 0
-0.105628 0.018689 0
-0.111522 0.009186 0
-0.116375 -0.000036 0
-0.120141 -0.008769 0
-0.122792 -0.016855 0
-0.124319 -0.024165 0
-0.124723 -0.030597 0
-0.124026 -0.036077 0
-0.122260 -0.040549 0
-0.119481 -0.043985 0
-0.115759 -0.046378 0
-0.111182 -0.047745 0
-0.105855 -0.048127 0
-0.099892 -0.047587 0
-0.093419 -0.046207 0
-0.086565 -0.044083 0
-0.079460 -0.041324 0
-0.072230 -0.038042 0
-0.064994 -0.034354 0
-0.057863 -0.030373 0
-0.050932 -0.026204 0
-0.044285 -0.021946 0
-0.037991 -0.017684 0
-0.032106 -0.013494 0
-0.026670 -0.009440 0
-0.021715 -0.005578 0
-0.017259 -0.001956 0
-0.013319 0.001375 0
-0.009905 0.004353 0
-0.007021 0.006911 0
-0.004659 0.008968 0
-0.002809 0.010404 0
-0.001456 0.011053 0
-0.000572 0.010687 0
-0.000105 0.009001 0
0.000034 0.005601 0
0.000000 -0.000000 0
0.000000 0.000000 0
-0.001298 0.018743 0
-0.004849 0.035248 0
-0.010324 0.049237 0
-0.017401 0.060396 0
-0.025759 0.068462 0
-0.035079 0.073296 0
-0.045049 0.074926 0
-0.055376 0.073549 0
-0.065791 0.069512 0
-0.076060 0.063259 0
-0.085980 0.055281 0
-0.095381 0.046062 0
-0.104122 0.036052 0
-0.112082 0.025644 0
-0.119161 0.015170 0
-0.125273 0.004906 0
-0.130342 -0.004919 0
-0.134318 -0.014126 0
-0.137163 -0.022573 0
-0.138854 -0.030146 0
-0.139382 -0.036753 0
-0.138754 -0.042322 0
-0.136995 -0.046804 0
-0.134151 -0.050174 0
-0.130288 -0.052431 0
-0.125493 -0.053600 0
-0.119868 -0.053730 0
-0.113532 -0.052893 0
-0.106612 -0.051181 0
-0.099244 -0.048701 0
-0.091562 -0.045569 0
-0.083699 -0.041910 0
-0.075780 -0.037844 0
-0.067922 -0.033492 0
-0.060226 -0.028964 0
-0.052784 -0.024360 0
-0.045671 -0.019770 0
-0.038949 -0.015271 0
-0.032668 -0.010928 0
-0.026869 -0.006802 0
-0.021580 -0.002947 0
-0.016830 0.000576 0
-0.012646 0.003691 0
-0.009050 0.006303 0
-0.006055 0.008293 0
-0.003672 0.009488 0
-0.001904 0.009644 0
-0.000742 0.008429 0
-0.000140 0.005402 0
0.000000 -0.000000 0
0.000000 0.000000 0
-0.001297 0.021175 0
-0.004860 0.039783 0
-0.010374 0.055556 0
-0.017529 0.068181 0
-0.026013 0.077398 0
-0.035520 0.083075 0
-0.045752 0.085250 0
-0.056430 0.084144 0
-0.067298 0.080132 0
-0.078130 0.073688 0
-0.088734 0.065335 0
-0.098942 0.055587 0
-0.108614 0.044914 0
-0.117626 0.033729 0
-0.125867 0.022376 0
-0.133234 0.011145 0
-0.139635 0.000276 0
-0.144986 -0.010034 0
-0.149221 -0.019628 0
-0.152293 -0.028378 0
-0.154164 -0.036177 0
-0.154810 -0.042937 0
-0.154226 -0.048588 0
-0.152430 -0.053085 0
-0.149460 -0.056403 0
-0.145380 -0.058547 0
-0.140274 -0.059548 0
-0.134248 -0.059463 0
-0.127424 -0.058371 0
-0.119935 -0.056374 0
-0.111923 -0.053587 0
-0.103531 -0.050136 0
-0.094899 -0.046150 0
-0.086159 -0.041758 0
-0.077436 -0.037083 0
-0.068841 -0.032240 0
-0.060472 -0.027329 0
-0.052414 -0.022443 0
-0.044738 -0.017658 0
-0.037508 -0.013044 0
-0.030774 -0.008664 0
-0.024583 -0.004581 0
-0.018982 -0.000869 0
-0.014019 0.002377 0
-0.009743 0.005026 0
-0.006200 0.006902 0
-0.003433 0.007757 0
-0.001476 0.007236 0
-0.000342 0.004860 0
0.000000 -0.000000 0
0.000000 0.000000 0
-0.001287 0.023604 0
-0.004835 0.044325 0
-0.010345 0.061905 0
-0.017518 0.076034 0
-0.026057 0.086453 0
-0.035672 0.093036 0
-0.046079 0.095836 0
-0.057015 0.095095 0
-0.068238 0.091213 0
-0.079537 0.084696 0
-0.090727 0.076093 0
-0.101651 0.065943 0
-0.112170 0.054736 0
-0.122159 0.042896 0
-0.131503 0.030778 0
-0.140087 0.018675 0
-0.147803 0.006832 0
-0.154541 -0.004540 0
-0.160205 -0.015265 0
-0.164719 -0.025204 0
-0.168018 -0.034236 0
-0.170048 -0.042259 0
-0.170773 -0.049184 0
-0.170178 -0.054940 0
-0.168269 -0.059481 0
-0.165082 -0.062786 0
-0.160678 -0.064862 0
-0.155143 -0.065743 0
-0.148587 -0.065494 0
-0.141139 -0.064201 0
-0.132940 -0.061973 0
-0.124141 -0.058934 0
-0.114892 -0.055216 0
-0.105345 -0.050954 0
-0.095643 -0.046282 0
-0.085917 -0.041325 0
-0.076291 -0.036198 0
-0.066872 -0.031004 0
-0.057757 -0.025834 0
-0.049032 -0.020767 0
-0.040773 -0.015871 0
-0.033053 -0.011216 0
-0.025942 -0.006874 0
-0.019511 -0.002936 0
-0.013841 0.000474 0
-0.009022 0.003178 0
-0.005146 0.004920 0
-0.002303 0.005339 0
-0.000572 0.003926 0
0.000000 -0.000000 0
0.000000 -0.000000 0
-0.001269 0.026010 0
-0.004779 0.048841 0
-0.010245 0.068238 0
-0.017384 0.083894 0
-0.025915 0.095553 0
-0.035561 0.103096 0
-0.046056 0.106592 0
-0.057154 0.106303 0
-0.068631 0.102654 0
-0.080289 0.096178 0
-0.091956 0.087450 0
-0.103485 0.077029 0
-0.114742 0.065423 0
-0.125607 0.053061 0
-0.135961 0.040304 0
-0.145685 0.027445 0
-0.154658 0.014729 0
-0.162754 0.002368 0
-0.169849 -0.009450 0
-0.175831 -0.020565 0
-0.180608 -0.030848 0
-0.184101 -0.040181 0
-0.186239 -0.048459 0
-0.186973 -0.055589 0
-0.186278 -0.061498 0
-0.184152 -0.066139 0
-0.180629 -0.069487 0
-0.175770 -0.071553 0
-0.169666 -0.072375 0
-0.162433 -0.072021 0
-0.154208 -0.070585 0
-0.145144 -0.068184 0
-0.135402 -0.064945 0
-0.125146 -0.061008 0
-0.114537 -0.056511 0
-0.103731 -0.051591 0
-0.092873 -0.046375 0
-0.082096 -0.040977 0
-0.071524 -0.035498 0
-0.061268 -0.030028 0
-0.051431 -0.024642 0
-0.042114 -0.019413 0
-0.033414 -0.014412 0
-0.025435 -0.009724 0
-0.018289 -0.005462 0
-0.012105 -0.001793 0
-0.007028 0.001037 0
-0.003216 0.002662 0
-0.000827 0.002557 0
0.000000 -0.000000 0
0.000000 -0.000000 0
-0.001244 0.028382 0
-0.004696 0.053302 0
-0.010086 0.074511 0
-0.017146 0.091704 0
-0.025608 0.104629 0
-0.035213 0.113177 0
-0.045714 0.117429 0
-0.056880 0.117670 0
-0.068506 0.114347 0
-0.080410 0.108021 0
-0.092434 0.099289 0
-0.104442 0.088728 0
-0.116311 0.076858 0
-0.127924 0.064114 0
-0.139167 0.050856 0
-0.149920 0.037372 0
-0.160055 0.023902 0
-0.169436 0.010652 0
-0.177919 -0.002188 0
-0.185356 -0.014444 0
-0.191626 -0.025967 0
-0.196622 -0.036629 0
-0.200245 -0.046311 0
-0.202410 -0.054902 0
-0.203056 -0.062302 0
-0.202145 -0.068434 0
-0.199674 -0.073244 0
-0.195673 -0.076707 0
-0.190208 -0.078831 0
-0.183375 -0.079659 0
-0.175301 -0.079262 0
-0.166135 -0.077741 0
-0.156043 -0.075215 0
-0.145200 -0.071819 0
-0.133785 -0.067697 0
-0.121973 -0.062989 0
-0.109936 -0.057833 0
-0.097831 -0.052353 0
-0.085811 -0.046663 0
-0.074014 -0.040859 0
-0.062574 -0.035025 0
-0.051619 -0.029233 0
-0.041278 -0.023553 0
-0.031689 -0.018061 0
-0.023002 -0.012856 0
-0.015389 -0.008083 0
-0.009046 -0.003969 0
-0.004203 -0.000863 0
-0.001105 0.000710 0
0.000000 -0.000000 0
0.000000 -0.000000 0
-0.001214 0.030706 0
-0.004592 0.057684 0
-0.009879 0.080688 0
-0.016818 0.099416 0
-0.025160 0.113620 0
-0.034658 0.123202 0
-0.045085 0.128259 0
-0.056228 0.129095 0
-0.067899 0.126184 0
-0.079933 0.120106 0
-0.092189 0.111482 0
-0.104542 0.100906 0
-0.116879 0.088904 0
-0.129096 0.075918 0
-0.141082 0.062301 0
-0.152723 0.048334 0
-0.163889 0.034245 0
-0.174439 0.020231 0
-0.184216 0.006470 0
-0.193057 -0.006858 0
-0.200795 -0.019583 0
-0.207298 -0.031563 0
-0.212439 -0.042671 0
-0.216102 -0.052778 0
-0.218188 -0.061764 0
-0.218621 -0.069520 0
-0.217358 -0.075959 0
-0.214391 -0.081019 0
-0.209752 -0.084673 0
-0.203512 -0.086928 0
-0.195778 -0.087825 0
-0.186691 -0.087442 0
-0.176414 -0.085880 0
-0.165130 -0.083266 0
-0.153032 -0.079738 0
-0.140316 -0.075440 0
-0.127177 -0.070517 0
-0.113802 -0.065101 0
-0.100370 -0.059315 0
-0.087051 -0.053265 0
-0.074009 -0.047038 0
-0.061404 -0.040709 0
-0.049399 -0.034341 0
-0.038167 -0.028000 0
-0.027897 -0.021763 0
-0.018809 -0.015748 0
-0.011158 -0.010149 0
-0.005242 -0.005280 0
-0.001400 -0.001646 0
0.000000 -0.000000 0
0.000000 0.000000 0
-0.001180 0.032974 0
-0.004472 0.061967 0
-0.009633 0.086738 0
-0.016419 0.106985 0
-0.024593 0.122469 0
-0.033927 0.133102 0
-0.044206 0.138999 0
-0.055239 0.140484 0
-0.066854 0.138053 0
-0.078904 0.132311 0
-0.091262 0.123897 0
-0.103819 0.113418 0
-0.116476 0.101412 0
-0.129136 0.088317 0
-0.141701 0.074483 0
-0.154063 0.060179 0
-0.166097 0.045617 0
-0.177663 0.030979 0
-0.188601 0.016430 0
-0.198738 0.002135 0
-0.207883 -0.011725 0
-0.215854 -0.024985 0