# vtk DataFile Version 2.0
generated by CFD-lab course output (written by Tobias Neckel) 
ASCII

DATASET STRUCTURED_GRID
DIMENSIONS  51 51 1 
POINTS 2601 float

0.000000 0.000000 0
0.020000 0.000000 0
0.040000 0.000000 0
0.060000 0.000000 0
0.080000 0.000000 0
0.100000 0.000000 0
0.120000 0.000000 0
0.140000 0.000000 0
0.160000 0.000000 0
0.180000 0.000000 0
0.200000 0.000000 0
0.220000 0.000000 0
0.240000 0.000000 0
0.260000 0.000000 0
0.280000 0.000000 0
0.300000 0.000000 0
0.320000 0.000000 0
0.340000 0.000000 0
0.360000 0.000000 0
0.380000 0.000000 0
0.400000 0.000000 0
0.420000 0.000000 0
0.440000 0.000000 0
0.460000 0.000000 0
0.480000 0.000000 0
0.500000 0.000000 0
0.520000 0.000000 0
0.540000 0.000000 0
0.560000 0.000000 0
0.580000 0.000000 0
0.600000 0.000000 0
0.620000 0.000000 0
0.640000 0.000000 0
0.660000 0.000000 0
0.680000 0.000000 0
0.700000 0.000000 0
0.720000 0.000000 0
0.740000 0.000000 0
0.760000 0.000000 0
0.780000 0.000000 0
0.800000 0.000000 0
0.820000 0.000000 0
0.840000 0.000000 0
0.860000 0.000000 0
0.880000 0.000000 0
0.900000 0.000000 0
0.920000 0.000000 0
0.940000 0.000000 0
0.960000 0.000000 0
0.980000 0.000000 0
1.000000 0.000000 0
0.000000 0.020000 0
0.020000 0.020000 0
0.040000 0.020000 0
0.060000 0.020000 0
0.080000 0.020000 0
0.100000 0.020000 0
0.120000 0.020000 0
0.140000 0.020000 0
0.160000 0.020000 0
0.180000 0.020000 0
0.200000 0.020000 0
0.220000 0.020000 0
0.240000 0.020000 0
0.260000 0.020000 0
0.280000 0.020000 0
0.300000 0.020000 0
0.320000 0.020000 0
0.340000 0.020000 0
0.360000 0.020000 0
0.380000 0.020000 0
0.400000 0.020000 0
0.420000 0.020000 0
0.440000 0.020000 0
0.460000 0.020000 0
0.480000 0.020000 0
0.500000 0.020000 0
0.520000 0.020000 0
0.540000 0.020000 0
0.560000 0.020000 0
0.580000 0.020000 0
0.600000 0.020000 0
0.620000 0.020000 0
0.640000 0.020000 0
0.660000 0.020000 0
0.680000 0.020000 0
0.700000 0.020000 0
0.720000 0.020000 0
0.740000 0.020000 0
0.760000 0.020000 0
0.780000 0.020000 0
0.800000 0.020000 0
0.820000 0.020000 0
0.840000 0.020000 0
0.860000 0.020000 0
0.880000 0.020000 0
0.900000 0.020000 0
0.920000 0.020000 0
0.940000 0.020000 0
0.960000 0.020000 0
0.980000 0.020000 0
1.000000 0.020000 0
0.000000 0.040000 0
0.020000 0.040000 0
0.040000 0.040000 0
0.060000 0.040000 0
0.080000 0.040000 0
0.100000 0.040000 0
0.120000 0.040000 0
0.140000 0.040000 0
0.160000 0.040000 0
0.180000 0.040000 0
0.200000 0.040000 0
0.220000 0.040000 0
0.240000 0.040000 0
0.260000 0.040000 0
0.280000 0.040000 0
0.300000 0.040000 0
0.320000 0.040000 0
0.340000 0.040000 0
0.360000 0.040000 0
0.380000 0.040000 0
0.400000 0.040000 0
0.420000 0.040000 0
0.440000 0.040000 0
0.460000 0.040000 0
0.480000 0.040000 0
0.500000 0.040000 0
0.520000 0.040000 0
0.540000 0.040000 0
0.560000 0.040000 0
0.580000 0.040000 0
0.600000 0.040000 0
0.620000 0.040000 0
0.640000 0.040000 0
0.660000 0.040000 0
0.680000 0.040000 0
0.700000 0.040000 0
0.720000 0.040000 0
0.740000 0.040000 0
0.760000 0.040000 0
0.780000 0.040000 0
0.800000 0.040000 0
0.820000 0.040000 0
0.840000 0.040000 0
0.860000 0.040000 0
0.880000 0.040000 0
0.900000 0.040000 0
0.920000 0.040000 0
0.940000 0.040000 0
0.960000 0.040000 0
0.980000 0.040000 0
1.000000 0.040000 0
0.000000 0.060000 0
0.020000 0.060000 0
0.040000 0.060000 0
0.060000 0.060000 0
0.080000 0.060000 0
0.100000 0.060000 0
0.120000 0.060000 0
0.140000 0.060000 0
0.160000 0.060000 0
0.180000 0.060000 0
0.200000 0.060000 0
0.220000 0.060000 0
0.240000 0.060000 0
0.260000 0.060000 0
0.280000 0.060000 0
0.300000 0.060000 0
0.320000 0.060000 0
0.340000 0.060000 0
0.360000 0.060000 0
0.380000 0.060000 0
0.400000 0.060000 0
0.420000 0.060000 0
0.440000 0.060000 0
0.460000 0.060000 0
0.480000 0.060000 0
0.500000 0.060000 0
0.520000 0.060000 0
0.540000 0.060000 0
0.560000 0.060000 0
0.580000 0.060000 0
0.600000 0.060000 0
0.620000 0.060000 0
0.640000 0.060000 0
0.660000 0.060000 0
0.680000 0.060000 0
0.700000 0.060000 0
0.720000 0.060000 0
0.740000 0.060000 0
0.760000 0.060000 0
0.780000 0.060000 0
0.800000 0.060000 0
0.820000 0.060000 0
0.840000 0.060000 0
0.860000 0.060000 0
0.880000 0.060000 0
0.900000 0.060000 0
0.920000 0.060000 0
0.940000 0.060000 0
0.960000 0.060000 0
0.980000 0.060000 0
1.000000 0.060000 0
0.000000 0.080000 0
0.020000 0.080000 0
0.040000 0.080000 0
0.060000 0.080000 0
0.080000 0.080000 0
0.100000 0.080000 0
0.120000 0.080000 0
0.140000 0.080000 0
0.160000 0.080000 0
0.180000 0.080000 0
0.200000 0.080000 0
0.220000 0.080000 0
0.240000 0.080000 0
0.260000 0.080000 0
0.280000 0.080000 0
0.300000 0.080000 0
0.320000 0.080000 0
0.340000 0.080000 0
0.360000 0.080000 0
0.380000 0.080000 0
0.400000 0.080000 0
0.420000 0.080000 0
0.440000 0.080000 0
0.460000 0.080000 0
0.480000 0.080000 0
0.500000 0.080000 0
0.520000 0.080000 0
0.540000 0.080000 0
0.560000 0.080000 0
0.580000 0.080000 0
0.600000 0.080000 0
0.620000 0.080000 0
0.640000 0.080000 0
0.660000 0.080000 0
0.680000 0.080000 0
0.700000 0.080000 0
0.720000 0.080000 0
0.740000 0.080000 0
0.760000 0.080000 0
0.780000 0.080000 0
0.800000 0.080000 0
0.820000 0.080000 0
0.840000 0.080000 0
0.860000 0.080000 0
0.880000 0.080000 0
0.900000 0.080000 0
0.920000 0.080000 0
0.940000 0.080000 0
0.960000 0.080000 0
0.980000 0.080000 0
1.000000 0.080000 0
0.000000 0.100000 0
0.020000 0.100000 0
0.040000 0.100000 0
0.060000 0.100000 0
0.080000 0.100000 0
0.100000 0.100000 0
0.120000 0.100000 0
0.140000 0.100000 0
0.160000 0.100000 0
0.180000 0.100000 0
0.200000 0.100000 0
0.220000 0.100000 0
0.240000 0.100000 0
0.260000 0.100000 0
0.280000 0.100000 0
0.300000 0.100000 0
0.320000 0.100000 0
0.340000 0.100000 0
0.360000 0.100000 0
0.380000 0.100000 0
0.400000 0.100000 0
0.420000 0.100000 0
0.440000 0.100000 0
0.460000 0.100000 0
0.480000 0.100000 0
0.500000 0.100000 0
0.520000 0.100000 0
0.540000 0.100000 0
0.560000 0.100000 0
0.580000 0.100000 0
0.600000 0.100000 0
0.620000 0.100000 0
0.640000 0.100000 0
0.660000 0.100000 0
0.680000 0.100000 0
0.700000 0.100000 0
0.720000 0.100000 0
0.740000 0.100000 0
0.760000 0.100000 0
0.780000 0.100000 0
0.800000 0.100000 0
0.820000 0.100000 0
0.840000 0.100000 0
0.860000 0.100000 0
0.880000 0.100000 0
0.900000 0.100000 0
0.920000 0.100000 0
0.940000 0.100000 0
0.960000 0.100000 0
0.980000 0.100000 0
1.000000 0.100000 0
0.000000 0.120000 0
0.020000 0.120000 0
0.040000 0.120000 0
0.060000 0.120000 0
0.080000 0.120000 0
0.100000 0.120000 0
0.120000 0.120000 0
0.140000 0.120000 0
0.160000 0.120000 0
0.180000 0.120000 0
0.200000 0.120000 0
0.220000 0.120000 0
0.240000 0.120000 0
0.260000 0.120000 0
0.280000 0.120000 0
0.300000 0.120000 0
0.320000 0.120000 0
0.340000 0.120000 0
0.360000 0.120000 0
0.380000 0.120000 0
0.400000 0.120000 0
0.420000 0.120000 0
0.440000 0.120000 0
0.460000 0.120000 0
0.480000 0.120000 0
0.500000 0.120000 0
0.520000 0.120000 0
0.540000 0.120000 0
0.560000 0.120000 0
0.580000 0.120000 0
0.600000 0.120000 0
0.620000 0.120000 0
0.640000 0.120000 0
0.660000 0.120000 0
0.680000 0.120000 0
0.700000 0.120000 0
0.720000 0.120000 0
0.740000 0.120000 0
0.760000 0.120000 0
0.780000 0.120000 0
0.800000 0.120000 0
0.820000 0.120000 0
0.840000 0.120000 0
0.860000 0.120000 0
0.880000 0.120000 0
0.900000 0.120000 0
0.920000 0.120000 0
0.940000 0.120000 0
0.960000 0.120000 0
0.980000 0.120000 0
1.000000 0.120000 0
0.000000 0.140000 0
0.020000 0.140000 0
0.040000 0.140000 0
0.060000 0.140000 0
0.080000 0.140000 0
0.100000 0.140000 0
0.120000 0.140000 0
0.140000 0.140000 0
0.160000 0.140000 0
0.180000 0.140000 0
0.200000 0.140000 0
0.220000 0.140000 0
0.240000 0.140000 0
0.260000 0.140000 0
0.280000 0.140000 0
0.300000 0.140000 0
0.320000 0.140000 0
0.340000 0.140000 0
0.360000 0.140000 0
0.380000 0.140000 0
0.400000 0.140000 0
0.420000 0.140000 0
0.440000 0.140000 0
0.460000 0.140000 0
0.480000 0.140000 0
0.500000 0.140000 0
0.520000 0.140000 0
0.540000 0.140000 0
0.560000 0.140000 0
0.580000 0.140000 0
0.600000 0.140000 0
0.620000 0.140000 0
0.640000 0.140000 0
0.660000 0.140000 0
0.680000 0.140000 0
0.700000 0.140000 0
0.720000 0.140000 0
0.740000 0.140000 0
0.760000 0.140000 0
0.780000 0.140000 0
0.800000 0.140000 0
0.820000 0.140000 0
0.840000 0.140000 0
0.860000 0.140000 0
0.880000 0.140000 0
0.900000 0.140000 0
0.920000 0.140000 0
0.940000 0.140000 0
0.960000 0.140000 0
0.980000 0.140000 0
1.000000 0.140000 0
0.000000 0.160000 0
0.020000 0.160000 0
0.040000 0.160000 0
0.060000 0.160000 0
0.080000 0.160000 0
0.100000 0.160000 0
0.120000 0.160000 0
0.140000 0.160000 0
0.160000 0.160000 0
0.180000 0.160000 0
0.200000 0.160000 0
0.220000 0.160000 0
0.240000 0.160000 0
0.260000 0.160000 0
0.280000 0.160000 0
0.300000 0.160000 0
0.320000 0.160000 0
0.340000 0.160000 0
0.360000 0.160000 0
0.380000 0.160000 0
0.400000 0.160000 0
0.420000 0.160000 0
0.440000 0.160000 0
0.460000 0.160000 0
0.480000 0.160000 0
0.500000 0.160000 0
0.520000 0.160000 0
0.540000 0.160000 0
0.560000 0.160000 0
0.580000 0.160000 0
0.600000 0.160000 0
0.620000 0.160000 0
0.640000 0.160000 0
0.660000 0.160000 0
0.680000 0.160000 0
0.700000 0.160000 0
0.720000 0.160000 0
0.740000 0.160000 0
0.760000 0.160000 0
0.780000 0.160000 0
0.800000 0.160000 0
0.820000 0.160000 0
0.840000 0.160000 0
0.860000 0.160000 0
0.880000 0.160000 0
0.900000 0.160000 0
0.920000 0.160000 0
0.940000 0.160000 0
0.960000 0.160000 0
0.980000 0.160000 0
1.000000 0.160000 0
0.000000 0.180000 0
0.020000 0.180000 0
0.040000 0.180000 0
0.060000 0.180000 0
0.080000 0.180000 0
0.100000 0.180000 0
0.120000 0.180000 0
0.140000 0.180000 0
0.160000 0.180000 0
0.180000 0.180000 0
0.200000 0.180000 0
0.220000 0.180000 0
0.240000 0.180000 0
0.260000 0.180000 0
0.280000 0.180000 0
0.300000 0.180000 0
0.320000 0.180000 0
0.340000 0.180000 0
0.360000 0.180000 0
0.380000 0.180000 0
0.400000 0.180000 0
0.420000 0.180000 0
0.440000 0.180000 0
0.460000 0.180000 0
0.480000 0.180000 0
0.500000 0.180000 0
0.520000 0.180000 0
0.540000 0.180000 0
0.560000 0.180000 0
0.580000 0.180000 0
0.600000 0.180000 0
0.620000 0.180000 0
[...]
POINT_DATA 2601 

VECTORS velocity float
0.000000 0.000000 0
0.000000 0.000000 0
-0.000000 0.000000 0
-0.000000 0.000000 0
-0.000001 0.000000 0
-0.000001 0.000000 0
-0.000002 0.000000 0
-0.000002 0.000000 0
-0.000002 0.000000 0
-0.000003 0.000000 0
-0.000003 0.000000 0
-0.000003 0.000000 0
-0.000003 0.000000 0
-0.000002 0.000000 0
-0.000002 0.000000 0
-0.000001 0.000000 0
-0.000001 0.000000 0
0.000000 0.000000 0
0.000001 0.000000 0
0.000002 0.000000 0
0.000003 0.000000 0
0.000004 0.000000 0
0.000005 0.000000 0
0.000005 0.000000 0
0.000006 0.000000 0
0.000006 0.000000 0
0.000007 0.000000 0
0.000007 0.000000 0
0.000007 0.000000 0
0.000007 0.000000 0
0.000007 0.000000 0
0.000007 0.000000 0
0.000007 0.000000 0
0.000007 0.000000 0
0.000006 0.000000 0
0.000006 0.000000 0
0.000006 0.000000 0
0.000005 0.000000 0
0.000005 0.000000 0
0.000004 0.000000 0
0.000003 0.000000 0
0.000003 0.000000 0
0.000002 0.000000 0
0.000002 0.000000 0
0.000001 0.000000 0
0.000001 0.000000 0
0.000000 0.000000 0
0.000000 0.000000 0
-0.000000 0.000000 0
-0.000000 0.000000 0
0.000000 0.000000 0
0.000000 -0.000000 0
0.000000 0.000000 0
-0.000198 0.000137 0
-0.000649 0.000295 0
-0.001340 0.000433 0
-0.002229 0.000538 0
-0.003261 0.000605 0
-0.004374 0.000634 0
-0.005509 0.000628 0
-0.006608 0.000590 0
-0.007619 0.000524 0
-0.008498 0.000435 0
-0.009210 0.000328 0
-0.009729 0.000211 0
-0.010040 0.000089 0
-0.010137 -0.000033 0
-0.010022 -0.000150 0
-0.009706 -0.000259 0
-0.009206 -0.000354 0
-0.008543 -0.000435 0
-0.007744 -0.000500 0
-0.006836 -0.000548 0
-0.005850 -0.000579 0
-0.004813 -0.000594 0
-0.003753 -0.000594 0
-0.002696 -0.000581 0
-0.001666 -0.000555 0
-0.000683 -0.000520 0
0.000236 -0.000476 0
0.001076 -0.000425 0
0.001826 -0.000371 0
0.002479 -0.000313 0
0.003028 -0.000253 0
0.003471 -0.000193 0
0.003806 -0.000133 0
0.004035 -0.000074 0
0.004160 -0.000017 0
0.004183 0.000037 0
0.004110 0.000089 0
0.003946 0.000138 0
0.003696 0.000183 0
0.003370 0.000223 0
0.002977 0.000257 0
0.002529 0.000283 0
0.002043 0.000298 0
0.001542 0.000298 0
0.001054 0.000278 0
0.000614 0.000231 0
0.000267 0.000153 0
0.000054 0.000055 0
0.000000 -0.000000 0
0.000000 0.000000 0
-0.000131 0.000196 0
-0.000636 0.000648 0
-0.001550 0.001142 0
-0.002847 0.001580 0
-0.004465 0.001920 0
-0.006316 0.002144 0
-0.008305 0.002247 0
-0.010333 0.002233 0
-0.012305 0.002109 0
-0.014133 0.001889 0
-0.015741 0.001590 0
-0.017067 0.001230 0
-0.018064 0.000829 0
-0.018702 0.000407 0
-0.018968 -0.000019 0
-0.018863 -0.000432 0
-0.018401 -0.000817 0
-0.017606 -0.001164 0
-0.016515 -0.001462 0
-0.015170 -0.001707 0
-0.013616 -0.001895 0
-0.011905 -0.002024 0
-0.010085 -0.002097 0
-0.008206 -0.002117 0
-0.006315 -0.002087 0
-0.004453 -0.002013 0
-0.002660 -0.001902 0
-0.000967 -0.001759 0
0.000598 -0.001590 0
0.002011 -0.001403 0
0.003257 -0.001201 0
0.004323 -0.000992 0
0.005202 -0.000778 0
0.005891 -0.000564 0
0.006389 -0.000353 0
0.006699 -0.000148 0
0.006826 0.000050 0
0.006779 0.000238 0
0.006565 0.000414 0
0.006198 0.000576 0
0.005692 0.000720 0
0.005065 0.000841 0
0.004340 0.000934 0
0.003546 0.000987 0
0.002720 0.000990 0
0.001909 0.000928 0
0.001168 0.000787 0
0.000561 0.000560 0
0.000153 0.000267 0
0.000000 0.000000 0
0.000000 0.000000 0
-0.000280 0.000636 0
-0.001112 0.001556 0
-0.002476 0.002506 0
-0.004321 0.003347 0
-0.006566 0.004006 0
-0.009104 0.004445 0
-0.011818 0.004652 0
-0.014585 0.004629 0
-0.017284 0.004390 0
-0.019803 0.003959 0
-0.022042 0.003368 0
-0.023919 0.002651 0
-0.025371 0.001846 0
-0.026356 0.000993 0
-0.026850 0.000127 0
-0.026850 -0.000718 0
-0.026370 -0.001516 0
-0.025439 -0.002240 0
-0.024097 -0.002872 0
-0.022398 -0.003399 0
-0.020399 -0.003813 0
-0.018164 -0.004111 0
-0.015760 -0.004293 0
-0.013250 -0.004364 0
-0.010699 -0.004334 0
-0.008163 -0.004210 0
-0.005697 -0.004006 0
-0.003346 -0.003733 0
-0.001151 -0.003404 0
0.000855 -0.003030 0
0.002646 -0.002625 0
0.004202 -0.002198 0
0.005511 -0.001760 0
0.006566 -0.001319 0
0.007364 -0.000882 0
0.007909 -0.000454 0
0.008205 -0.000042 0
0.008263 0.000351 0
0.008094 0.000718 0
0.007715 0.001056 0
0.007147 0.001356 0
0.006412 0.001609 0
0.005541 0.001802 0
0.004572 0.001918 0
0.003551 0.001935 0
0.002535 0.001830 0
0.001591 0.001578 0
0.000795 0.001168 0
0.000232 0.000616 0
0.000000 0.000000 0
0.000000 0.000001 0
-0.000413 0.001307 0
-0.001547 0.002843 0
-0.003327 0.004351 0
-0.005669 0.005670 0
-0.008469 0.006703 0
-0.011607 0.007397 0
-0.014949 0.007728 0
-0.018355 0.007698 0
-0.021688 0.007326 0
-0.024817 0.006647 0
-0.027628 0.005706 0
-0.030023 0.004560 0
-0.031925 0.003266 0
-0.033279 0.001885 0
-0.034053 0.000475 0
-0.034239 -0.000912 0
-0.033845 -0.002229 0
-0.032901 -0.003437 0
-0.031449 -0.004504 0
-0.029547 -0.005406 0
-0.027260 -0.006128 0
-0.024661 -0.006664 0
-0.021827 -0.007012 0
-0.018835 -0.007178 0
-0.015760 -0.007175 0
-0.012674 -0.007016 0
-0.009643 -0.006719 0
-0.006727 -0.006304 0
-0.003976 -0.005791 0
-0.001434 -0.005200 0
0.000864 -0.004549 0
0.002891 -0.003857 0
0.004627 -0.003142 0
0.006061 -0.002418 0
0.007188 -0.001696 0
0.008009 -0.000989 0
0.008530 -0.000304 0
0.008760 0.000349 0
0.008715 0.000961 0
0.008412 0.001523 0
0.007876 0.002024 0
0.007135 0.002447 0
0.006224 0.002773 0
0.005185 0.002977 0
0.004069 0.003027 0
0.002940 0.002889 0
0.001871 0.002528 0
0.000951 0.001919 0
0.000284 0.001062 0
0.000000 0.000000 0
0.000000 0.000001 0
-0.000522 0.002181 0
-0.001920 0.004470 0
-0.004072 0.006628 0
-0.006859 0.008490 0
-0.010158 0.009944 0
-0.013833 0.010924 0
-0.017735 0.011399 0
-0.021715 0.011367 0
-0.025622 0.010852 0
-0.029314 0.009900 0
-0.032665 0.008573 0
-0.035564 0.006947 0
-0.037923 0.005102 0
-0.039677 0.003122 0
-0.040784 0.001087 0
-0.041226 -0.000927 0
-0.041009 -0.002854 0
-0.040158 -0.004636 0
-0.038713 -0.006226 0
-0.036734 -0.007589 0
-0.034288 -0.008699 0
-0.031454 -0.009544 0
-0.028316 -0.010120 0
-0.024960 -0.010432 0
-0.021471 -0.010495 0
-0.017933 -0.010327 0
-0.014423 -0.009953 0
-0.011012 -0.009400 0
-0.007762 -0.008696 0
-0.004726 -0.007870 0
-0.001948 -0.006950 0
0.000537 -0.005961 0
0.002704 -0.004931 0
0.004533 -0.003881 0
0.006018 -0.002830 0
0.007155 -0.001796 0
0.007950 -0.000793 0
0.008413 0.000166 0
0.008559 0.001066 0
0.008409 0.001894 0
0.007987 0.002633 0
0.007325 0.003262 0
0.006460 0.003753 0
0.005436 0.004073 0
0.004309 0.004180 0
0.003144 0.004028 0
0.002021 0.003567 0
0.001037 0.002756 0
0.000312 0.001567 0
0.000000 0.000001 0
0.000000 0.000001 0
-0.000610 0.003227 0
-0.002233 0.006392 0
-0.004709 0.009289 0
-0.007893 0.011756 0
-0.011640 0.013676 0
-0.015800 0.014973 0
-0.020213 0.015610 0
-0.024721 0.015584 0
-0.029164 0.014925 0
-0.033392 0.013690 0
-0.037267 0.011956 0
-0.040672 0.009817 0
-0.043506 0.007378 0
-0.045696 0.004745 0
-0.047189 0.002024 0
-0.047960 -0.000686 0
-0.048005 -0.003298 0
-0.047343 -0.005733 0
-0.046012 -0.007928 0
-0.044066 -0.009831 0
-0.041575 -0.011408 0
-0.038618 -0.012636 0
-0.035284 -0.013506 0
-0.031664 -0.014023 0
-0.027854 -0.014201 0
-0.023945 -0.014063 0
-0.020024 -0.013640 0
-0.016174 -0.012966 0
-0.012466 -0.012077 0
-0.008965 -0.011013 0
-0.005723 -0.009812 0
-0.002784 -0.008509 0
-0.000178 -0.007138 0
0.002068 -0.005732 0
0.003942 -0.004318 0
0.005438 -0.002921 0
0.006557 -0.001562 0
0.007311 -0.000260 0
0.007712 0.000966 0
0.007783 0.002096 0
0.007548 0.003108 0
0.007041 0.003974 0
0.006299 0.004662 0
0.005368 0.005128 0
0.004304 0.005319 0
0.003172 0.005177 0
0.002058 0.004635 0
0.001064 0.003629 0
0.000322 0.002099 0
0.000000 0.000001 0
0.000000 0.000002 0
-0.000681 0.004414 0
-0.002492 0.008569 0
-0.005249 0.012288 0
-0.008783 0.015421 0
-0.012932 0.017850 0
-0.017532 0.019497 0
-0.022417 0.020320 0
-0.027417 0.020317 0
-0.032369 0.019522 0
-0.037115 0.018003 0
-0.041511 0.015853 0
-0.045431 0.013186 0
-0.048767 0.010126 0
-0.051435 0.006804 0
-0.053373 0.003351 0
-0.054544 -0.000111 0
-0.054936 -0.003471 0
-0.054559 -0.006629 0
-0.053444 -0.009504 0
-0.051639 -0.012026 0
-0.049210 -0.014148 0
-0.046236 -0.015835 0
-0.042806 -0.017073 0
-0.039017 -0.017862 0
-0.034968 -0.018214 0
-0.030758 -0.018157 0
-0.026486 -0.017724 0
-0.022241 -0.016958 0
-0.018108 -0.015905 0
-0.014160 -0.014613 0
-0.010460 -0.013131 0
-0.007061 -0.011506 0
-0.004001 -0.009782 0
-0.001311 -0.008001 0
0.000989 -0.006199 0
0.002889 -0.004411 0
0.004387 -0.002666 0
0.005490 -0.000989 0
0.006212 0.000595 0
0.006573 0.002058 0
0.006597 0.003375 0
0.006318 0.004511 0
0.005773 0.005426 0
0.005007 0.006069 0
0.004075 0.006376 0
0.003043 0.006273 0
0.001996 0.005676 0
0.001042 0.004493 0
0.000318 0.002631 0
0.000000 0.000002 0
0.000000 0.000003 0
-0.000738 0.005718 0
-0.002707 0.010960 0
-0.005704 0.015579 0
-0.009544 0.019439 0
-0.014052 0.022425 0
-0.019053 0.024458 0
-0.024372 0.025495 0
-0.029836 0.025536 0
-0.035274 0.024623 0
-0.040526 0.022832 0
-0.045443 0.020272 0
-0.049893 0.017073 0
-0.053760 0.013381 0
-0.056950 0.009351 0
-0.059394 0.005134 0
-0.061041 0.000877 0
-0.061868 -0.003282 0
-0.061874 -0.007226 0
-0.061080 -0.010849 0
-0.059525 -0.014066 0
-0.057270 -0.016811 0
-0.054387 -0.019040 0
-0.050964 -0.020725 0
-0.047099 -0.021862 0
-0.042893 -0.022460 0
-0.038454 -0.022545 0
-0.033886 -0.022157 0
-0.029289 -0.021343 0
-0.024758 -0.020158 0
-0.020376 -0.018661 0
-0.016217 -0.016911 0
-0.012344 -0.014968 0
-0.008805 -0.012888 0
-0.005638 -0.010722 0
-0.002868 -0.008518 0
-0.000512 -0.006319 0
0.001424 -0.004163 0
0.002943 -0.002085 0
0.004055 -0.000116 0
0.004779 0.001711 0
0.005138 0.003362 0
0.005163 0.004799 0
0.004889 0.005973 0
0.004362 0.006826 0
0.003632 0.007284 0
0.002765 0.007255 0
0.001844 0.006636 0
0.000977 0.005308 0
0.000302 0.003141 0
0.000000 0.000002 0
0.000000 0.000003 0
-0.000784 0.007120 0
-0.002883 0.013534 0
-0.006085 0.019124 0
-0.010192 0.023769 0
-0.015018 0.027359 0
-0.020381 0.029817 0
-0.026100 0.031102 0
-0.031997 0.031218 0
-0.037901 0.030212 0
-0.043648 0.028172 0
-0.049086 0.025219 0
-0.054079 0.021502 0
-0.058506 0.017183 0
-0.062266 0.012438 0
-0.065275 0.007441 0
-0.067475 0.002363 0
-0.068828 -0.002638 0
-0.069320 -0.007418 0
-0.068958 -0.011852 0
-0.067771 -0.015837 0
-0.065807 -0.019286 0
-0.063132 -0.022141 0
-0.059828 -0.024361 0
-0.055990 -0.025932 0
-0.051720 -0.026859 0
-0.047129 -0.027164 0
-0.042327 -0.026889 0
-0.037423 -0.026087 0
-0.032521 -0.024819 0
-0.027717 -0.023154 0
-0.023096 -0.021163 0
-0.018731 -0.018918 0
-0.014681 -0.016488 0
-0.010994 -0.013937 0
-0.007704 -0.011324 0
-0.004833 -0.008703 0
-0.002392 -0.006121 0
-0.000385 -0.003620 0
0.001197 -0.001242 0
0.002366 0.000976 0
0.003142 0.002991 0
0.003553 0.004760 0
0.003633 0.006227 0
0.003423 0.007327 0
0.002970 0.007973 0
0.002337 0.008061 0
0.001602 0.007464 0
0.000869 0.006035 0
0.000275 0.003608 0
0.000000 0.000002 0
0.000000 0.000004 0
-0.000820 0.008601 0
-0.003028 0.016261 0
-0.006402 0.022887 0
-0.010738 0.028372 0
-0.015844 0.032614 0
-0.021531 0.035539 0
-0.027615 0.037111 0
-0.033916 0.037337 0
-0.040262 0.036273 0
-0.046489 0.034017 0
-0.052445 0.030703 0
-0.057992 0.026492 0
-0.063004 0.021567 0
-0.067374 0.016119 0
-0.071009 0.010343 0
-0.073838 0.004430 0
-0.075809 -0.001438 0
-0.076892 -0.007096 0
-0.077080 -0.012398 0
-0.076385 -0.017217 0
-0.074842 -0.021450 0
-0.072505 -0.025018 0
-0.069446 -0.027868 0
-0.065752 -0.029970 0
-0.061525 -0.031321 0
-0.056873 -0.031939 0
-0.051913 -0.031863 0
-0.046758 -0.031148 0
-0.041524 -0.029864 0
-0.036316 -0.028086 0
-0.031231 -0.025898 0
-0.026355 -0.023383 0
-0.021761 -0.020624 0
-0.017506 -0.017699 0
-0.013635 -0.014679 0
-0.010179 -0.011631 0
-0.007158 -0.008612 0
-0.004579 -0.005674 0
-0.002441 -0.002867 0
-0.000736 -0.000234 0
0.000551 0.002175 0
0.001443 0.004307 0
0.001969 0.006104 0
0.002164 0.007489 0
0.002072 0.008369 0
0.001748 0.008624 0
0.001264 0.008105 0
0.000716 0.006635 0
0.000236 0.004010 0
0.000000 0.000003 0
0.000000 0.000004 0
-0.000850 0.010147 0
-0.003145 0.019115 0
-0.006662 0.026834 0
-0.011194 0.033211 0
-0.016542 0.038152 0
-0.022515 0.041588 0
-0.028928 0.043487 0
-0.035600 0.043865 0
-0.042360 0.042785 0
-0.049048 0.040355 0
-0.055512 0.036722 0
-0.061615 0.032060 0
-0.067230 0.026565 0
-0.072244 0.020443 0
-0.076558 0.013906 0
-0.080088 0.007163 0
-0.082767 0.000416 0
-0.084547 -0.006147 0
-0.085404 -0.012360 0
-0.085334 -0.018074 0
-0.084352 -0.023166 0
-0.082496 -0.027537 0
-0.079824 -0.031114 0
-0.076413 -0.033853 0
-0.072355 -0.035738 0
-0.067756 -0.036777 0
-0.062731 -0.037004 0
-0.057402 -0.036475 0
-0.051888 -0.035261 0
-0.046306 -0.033446 0
-0.040766 -0.031124 0
-0.035368 -0.028389 0
-0.030197 -0.025338 0
-0.025324 -0.022063 0
-0.020809 -0.018651 0
-0.016692 -0.015180 0
-0.013003 -0.011721 0
-0.009759 -0.008337 0
-0.006966 -0.005084 0
-0.004622 -0.002017 0
-0.002717 0.000812 0
-0.001237 0.003342 0
-0.000161 0.005506 0
0.000541 0.007223 0
0.000905 0.008389 0
0.000977 0.008869 0
0.000817 0.008496 0
0.000513 0.007063 0
0.000185 0.004325 0
0.000000 0.000003 0
0.000000 0.000005 0
-0.000872 0.011745 0
-0.003238 0.022073 0
-0.006873 0.030936 0
-0.011567 0.038251 0
-0.017122 0.043935 0
-0.023343 0.047925 0
-0.030046 0.050195 0
-0.037053 0.050770 0
-0.044195 0.049721 0
-0.051316 0.047169 0
-0.058270 0.043269 0
-0.064922 0.038210 0
-0.071146 0.032197 0
-0.076828 0.025448 0
-0.081862 0.018187 0
-0.086154 0.010639 0
-0.089623 0.003021 0
-0.092203 -0.004459 0
-0.093849 -0.011611 0
-0.094538 -0.018269 0
-0.094264 -0.024288 0
-0.093045 -0.029546 0
-0.090920 -0.033951 0
-0.087947 -0.037440 0
-0.084208 -0.039978 0
-0.079799 -0.041562 0
-0.074831 -0.042217 0
-0.069426 -0.041992 0
-0.063708 -0.040959 0
-0.057805 -0.039207 0
-0.051836 -0.036836 0
-0.045915 -0.033953 0
-0.040144 -0.030668 0
-0.034609 -0.027087 0
-0.029385 -0.023312 0
-0.024526 -0.019436 0
-0.020077 -0.015544 0
-0.016064 -0.011711 0
-0.012505 -0.008003 0
-0.009406 -0.004483 0
-0.006766 -0.001210 0
-0.004577 0.001752 0
-0.002830 0.004325 0
-0.001505 0.006423 0
-0.000576 0.007934 0
-0.000009 0.008712 0
0.000242 0.008568 0
0.000249 0.007268 0
0.000117 0.004524 0
0.000000 0.000003 0
0.000000 0.000006 0
-0.000889 0.013384 0
-0.003309 0.025115 0
-0.007038 0.035163 0
-0.011865 0.043460 0
-0.017591 0.049928 0
-0.024023 0.054512 0
-0.030977 0.057197 0
-0.038278 0.058014 0
-0.045764 0.057048 0
-0.053284 0.054430 0
-0.060700 0.050327 0
-0.067881 0.044936 0
-0.074707 0.038471 0
-0.081064 0.031159 0
-0.086843 0.023232 0
-0.091943 0.014923 0
-0.096270 0.006464 0
-0.099742 -0.001921 0
-0.102291 -0.010025 0
-0.103871 -0.017659 0
-0.104454 -0.024659 0
-0.104034 -0.030882 0
-0.102625 -0.036213 0
-0.100266 -0.040565 0
-0.097017 -0.043886 0
-0.092961 -0.046153 0
-0.088199 -0.047377 0
-0.082848 -0.047598 0
-0.077032 -0.046882 0
-0.070885 -0.045319 0
-0.064537 -0.043013 0
-0.058115 -0.040081 0
-0.051737 -0.036643 0
-0.045508 -0.032822 0
-0.039518 -0.028734 0
-0.033840 -0.024488 0
-0.028535 -0.020183 0
-0.023645 -0.015908 0
-0.019200 -0.011742 0
-0.015218 -0.007756 0
-0.011711 -0.004017 0
-0.008680 -0.000593 0
-0.006125 0.002434 0
-0.004044 0.004969 0
-0.002425 0.006893 0
-0.001249 0.008051 0
-0.000486 0.008238 0
-0.000088 0.007188 0
0.000029 0.004574 0
0.000000 0.000003 0
0.000000 0.000006 0
-0.000901 0.015054 0
-0.003361 0.028222 0
-0.007162 0.039492 0
-0.012094 0.048805 0
-0.017959 0.056093 0
-0.024563 0.061311 0
-0.031727 0.064450 0
-0.039280 0.065557 0
-0.047066 0.064727 0
-0.054942 0.062103 0
-0.062779 0.057865 0
-0.070457 0.052217 0
-0.077861 0.045380 0
-0.084883 0.037584 0
-0.091415 0.029067 0
-0.097349 0.020066 0
-0.102584 0.010819 0
-0.107021 0.001562 0
-0.110570 -0.007482 0
-0.113163 -0.016106 0
-0.114746 -0.024124 0
-0.115286 -0.031375 0
-0.114770 -0.037719 0
-0.113210 -0.043048 0
-0.110641 -0.047283 0
-0.107124 -0.050380 0
-0.102745 -0.052331 0
-0.097607 -0.053159 0
-0.091832 -0.052922 0
-0.085553 -0.051702 0
-0.078908 -0.049605 0
-0.072036 -0.046753 0
-0.065069 -0.043275 0
-0.058132 -0.039307 0
-0.051334 -0.034979 0
-0.044770 -0.030419 0
-0.038518 -0.025740 0
-0.032641 -0.021046 0
-0.027185 -0.016429 0
-0.022187 -0.011971 0
-0.017669 -0.007748 0
-0.013650 -0.003834 0
-0.010141 -0.000310 0
-0.007155 0.002723 0
-0.004703 0.005138 0
-0.002785 0.006773 0
-0.001396 0.007408 0
-0.000513 0.006753 0
-0.000083 0.004436 0
0.000000 0.000002 0
0.000000 0.000007 0
-0.000908 0.016745 0
-0.003397 0.031376 0
-0.007250 0.043896 0
-0.012261 0.054256 0
-0.018232 0.062397 0
-0.024972 0.068280 0
-0.032304 0.071913 0
-0.040062 0.073352 0
-0.048099 0.072710 0
-0.056282 0.070143 0
-0.064492 0.065842 0
-0.072620 0.060018 0
-0.080564 0.052897 0
-0.088220 0.044712 0
-0.095487 0.035698 0
-0.102258 0.026092 0
-0.108424 0.016135 0
-0.113874 0.006065 0
-0.118500 -0.003882 0
-0.122208 -0.013484 0
-0.124918 -0.022536 0
-0.126569 -0.030858 0
-0.127118 -0.038289 0
-0.126545 -0.044694 0
-0.124856 -0.049971 0
-0.122082 -0.054049 0
-0.118285 -0.056895 0
-0.113550 -0.058511 0
-0.107987 -0.058936 0
-0.101724 -0.058243 0
-0.094900 -0.056530 0
-0.087663 -0.053919 0
-0.080159 -0.050547 0
-0.072530 -0.046557 0
-0.064907 -0.042096 0
-0.057407 -0.037303 0
-0.050132 -0.032312 0
-0.043166 -0.027241 0
-0.036578 -0.022196 0
-0.030424 -0.017272 0
-0.024748 -0.012554 0
-0.019584 -0.008122 0
-0.014964 -0.004060 0
-0.010916 -0.000469 0
-0.007472 0.002524 0
-0.004665 0.004745 0
-0.002518 0.005966 0
-0.001042 0.005875 0
-0.000224 0.004061 0
0.000000 0.000002 0
0.000000 0.000007 0
-0.000912 0.018450 0
-0.003418 0.034564 0
-0.007307 0.048356 0
-0.012373 0.059786 0
-0.018420 0.068804 0
-0.025259 0.075382 0
-0.032717 0.079540 0
-0.040633 0.081352 0
-0.048869 0.080947 0
-0.057303 0.078496 0
-0.065827 0.074203 0
-0.074347 0.068288 0
-0.082773 0.060980 0
-0.091015 0.052508 0
-0.098977 0.043105 0
-0.106559 0.033002 0
-0.113649 0.022434 0
-0.120130 0.011638 0
-0.125880 0.000852 0
-0.130778 -0.009688 0
-0.134718 -0.019763 0
-0.137610 -0.029175 0
-0.139380 -0.037743 0
-0.139975 -0.045310 0
-0.139363 -0.051746 0
-0.137543 -0.056951 0
-0.134544 -0.060862 0
-0.130426 -0.063457 0
-0.125277 -0.064748 0
-0.119212 -0.064789 0
-0.112365 -0.063666 0
-0.104888 -0.061493 0
-0.096936 -0.058408 0
-0.088666 -0.054559 0
-0.080232 -0.050103 0
-0.071775 -0.045194 0
-0.063421 -0.039981 0
-0.055281 -0.034599 0
-0.047451 -0.029170 0
-0.040011 -0.023801 0
-0.033028 -0.018588 0
-0.026561 -0.013618 0
-0.020663 -0.008978 0
-0.015388 -0.004768 0
-0.010789 -0.001112 0
-0.006932 0.001818 0
-0.003880 0.003785 0
-0.001691 0.004459 0
-0.000400 0.003394 0
0.000000 0.000001 0
0.000000 0.000008 0
-0.000912 0.020162 0
-0.003427 0.037771 0
-0.007336 0.052851 0
-0.012437 0.065369 0
-0.018532 0.075283 0
-0.025437 0.082577 0
-0.032979 0.087286 0
-0.041006 0.089505 0
-0.049386 0.089380 0
-0.058008 0.087101 0
-0.066781 0.082886 0
-0.075624 0.076964 0
-0.084461 0.069565 0
-0.093219 0.060916 0
-0.101813 0.051242 0
-0.110152 0.040764 0
-0.118128 0.029706 0
-0.125622 0.018296 0
-0.132502 0.006766 0
-0.138630 -0.004646 0
-0.143869 -0.015704 0
-0.148103 -0.026195 0
-0.151225 -0.035924 0
-0.153146 -0.044712 0
-0.153797 -0.052403 0
-0.153138 -0.058867 0
-0.151158 -0.064012 0
-0.147883 -0.067778 0
-0.143372 -0.070151 0
-0.137717 -0.071154 0
-0.131040 -0.070854 0
-0.123485 -0.069349 0
-0.115215 -0.066768 0
-0.106399 -0.063260 0
-0.097207 -0.058987 0
-0.087806 -0.054115 0
-0.078349 -0.048806 0
-0.068977 -0.043210 0
-0.059815 -0.037466 0
-0.050973 -0.031695 0
-0.042546 -0.026003 0
-0.034621 -0.020486 0
-0.027281 -0.015234 0
-0.020607 -0.010343 0
-0.014687 -0.005932 0
-0.009617 -0.002164 0
-0.005508 0.000725 0
-0.002473 0.002396 0
-0.000615 0.002370 0
0.000000 -0.000000 0
0.000000 0.000008 0
-0.000910 0.021877 0
-0.003427 0.040988 0
-0.007344 0.057365 0
-0.012460 0.070982 0
-0.018580 0.081804 0
-0.025518 0.089828 0
-0.033105 0.095108 0
-0.041194 0.097758 0
-0.049662 0.097949 0
-0.058410 0.095892 0
-0.067360 0.091819 0
-0.076446 0.085968 0
-0.085612 0.078574 0
-0.094799 0.069860 0
-0.103940 0.060038 0
-0.112955 0.049317 0
-0.121746 0.037904 0
-0.130197 0.026012 0
-0.138173 0.013860 0
-0.145526 0.001680 0
-0.152096 -0.010290 0
-0.157731 -0.021819 0
-0.162298 -0.032700 0