# vtk DataFile Version 2.0
generated by CFD-lab course output (written by Tobias Neckel) 
ASCII

DATASET STRUCTURED_GRID
DIMENSIONS  51 51 1 
POINTS 2601 float

0.000000 0.000000 0
0.020000 0.000000 0
0.040000 0.000000 0
0.060000 0.000000 0
0.080000 0.000000 0
0.100000 0.000000 0
0.120000 0.000000 0
0.140000 0.000000 0
0.160000 0.000000 0
0.180000 0.000000 0
0.200000 0.000000 0
0.220000 0.000000 0
0.240000 0.000000 0
0.260000 0.000000 0
0.280000 0.000000 0
0.300000 0.000000 0
0.320000 0.000000 0
0.340000 0.000000 0
0.360000 0.000000 0
0.380000 0.000000 0
0.400000 0.000000 0
0.420000 0.000000 0
0.440000 0.000000 0
0.460000 0.000000 0
0.480000 0.000000 0
0.500000 0.000000 0
0.520000 0.000000 0
0.540000 0.000000 0
0.560000 0.000000 0
0.580000 0.000000 0
0.600000 0.000000 0
0.620000 0.000000 0
0.640000 0.000000 0
0.660000 0.000000 0
0.680000 0.000000 0
0.700000 0.000000 0
0.720000 0.000000 0
0.740000 0.000000 0
0.760000 0.000000 0
0.780000 0.000000 0
0.800000 0.000000 0
0.820000 0.000000 0
0.840000 0.000000 0
0.860000 0.000000 0
0.880000 0.000000 0
0.900000 0.000000 0
0.920000 0.000000 0
0.940000 0.000000 0
0.960000 0.000000 0
0.980000 0.000000 0
1.000000 0.000000 0
0.000000 0.020000 0
0.020000 0.020000 0
0.040000 0.020000 0
0.060000 0.020000 0
0.080000 0.020000 0
0.100000 0.020000 0
0.120000 0.020000 0
0.140000 0.020000 0
0.160000 0.020000 0
0.180000 0.020000 0
0.200000 0.020000 0
0.220000 0.020000 0
0.240000 0.020000 0
0.260000 0.020000 0
0.280000 0.020000 0
0.300000 0.020000 0
0.320000 0.020000 0
0.340000 0.020000 0
0.360000 0.020000 0
0.380000 0.020000 0
0.400000 0.020000 0
0.420000 0.020000 0
0.440000 0.020000 0
0.460000 0.020000 0
0.480000 0.020000 0
0.500000 0.020000 0
0.520000 0.020000 0
0.540000 0.020000 0
0.560000 0.020000 0
0.580000 0.020000 0
0.600000 0.020000 0
0.620000 0.020000 0
0.640000 0.020000 0
0.660000 0.020000 0
0.680000 0.020000 0
0.700000 0.020000 0
0.720000 0.020000 0
0.740000 0.020000 0
0.760000 0.020000 0
0.780000 0.020000 0
0.800000 0.020000 0
0.820000 0.020000 0
0.840000 0.020000 0
0.860000 0.020000 0
0.880000 0.020000 0
0.900000 0.020000 0
0.920000 0.020000 0
0.940000 0.020000 0
0.960000 0.020000 0
0.980000 0.020000 0
1.000000 0.020000 0
0.000000 0.040000 0
0.020000 0.040000 0
0.040000 0.040000 0
0.060000 0.040000 0
0.080000 0.040000 0
0.100000 0.040000 0
0.120000 0.040000 0
0.140000 0.040000 0
0.160000 0.040000 0
0.180000 0.040000 0
0.200000 0.040000 0
0.220000 0.040000 0
0.240000 0.040000 0
0.260000 0.040000 0
0.280000 0.040000 0
0.300000 0.040000 0
0.320000 0.040000 0
0.340000 0.040000 0
0.360000 0.040000 0
0.380000 0.040000 0
0.400000 0.040000 0
0.420000 0.040000 0
0.440000 0.040000 0
0.460000 0.040000 0
0.480000 0.040000 0
0.500000 0.040000 0
0.520000 0.040000 0
0.540000 0.040000 0
0.560000 0.040000 0
0.580000 0.040000 0
0.600000 0.040000 0
0.620000 0.040000 0
0.640000 0.040000 0
0.660000 0.040000 0
0.680000 0.040000 0
0.700000 0.040000 0
0.720000 0.040000 0
0.740000 0.040000 0
0.760000 0.040000 0
0.780000 0.040000 0
0.800000 0.040000 0
0.820000 0.040000 0
0.840000 0.040000 0
0.860000 0.040000 0
0.880000 0.040000 0
0.900000 0.040000 0
0.920000 0.040000 0
0.940000 0.040000 0
0.960000 0.040000 0
0.980000 0.040000 0
1.000000 0.040000 0
0.000000 0.060000 0
0.020000 0.060000 0
0.040000 0.060000 0
0.060000 0.060000 0
0.080000 0.060000 0
0.100000 0.060000 0
0.120000 0.060000 0
0.140000 0.060000 0
0.160000 0.060000 0
0.180000 0.060000 0
0.200000 0.060000 0
0.220000 0.060000 0
0.240000 0.060000 0
0.260000 0.060000 0
0.280000 0.060000 0
0.300000 0.060000 0
0.320000 0.060000 0
0.340000 0.060000 0
0.360000 0.060000 0
0.380000 0.060000 0
0.400000 0.060000 0
0.420000 0.060000 0
0.440000 0.060000 0
0.460000 0.060000 0
0.480000 0.060000 0
0.500000 0.060000 0
0.520000 0.060000 0
0.540000 0.060000 0
0.560000 0.060000 0
0.580000 0.060000 0
0.600000 0.060000 0
0.620000 0.060000 0
0.640000 0.060000 0
0.660000 0.060000 0
0.680000 0.060000 0
0.700000 0.060000 0
0.720000 0.060000 0
0.740000 0.060000 0
0.760000 0.060000 0
0.780000 0.060000 0
0.800000 0.060000 0
0.820000 0.060000 0
0.840000 0.060000 0
0.860000 0.060000 0
0.880000 0.060000 0
0.900000 0.060000 0
0.920000 0.060000 0
0.940000 0.060000 0
0.960000 0.060000 0
0.980000 0.060000 0
1.000000 0.060000 0
0.000000 0.080000 0
0.020000 0.080000 0
0.040000 0.080000 0
0.060000 0.080000 0
0.080000 0.080000 0
0.100000 0.080000 0
0.120000 0.080000 0
0.140000 0.080000 0
0.160000 0.080000 0
0.180000 0.080000 0
0.200000 0.080000 0
0.220000 0.080000 0
0.240000 0.080000 0
0.260000 0.080000 0
0.280000 0.080000 0
0.300000 0.080000 0
0.320000 0.080000 0
0.340000 0.080000 0
0.360000 0.080000 0
0.380000 0.080000 0
0.400000 0.080000 0
0.420000 0.080000 0
0.440000 0.080000 0
0.460000 0.080000 0
0.480000 0.080000 0
0.500000 0.080000 0
0.520000 0.080000 0
0.540000 0.080000 0
0.560000 0.080000 0
0.580000 0.080000 0
0.600000 0.080000 0
0.620000 0.080000 0
0.640000 0.080000 0
0.660000 0.080000 0
0.680000 0.080000 0
0.700000 0.080000 0
0.720000 0.080000 0
0.740000 0.080000 0
0.760000 0.080000 0
0.780000 0.080000 0
0.800000 0.080000 0
0.820000 0.080000 0
0.840000 0.080000 0
0.860000 0.080000 0
0.880000 0.080000 0
0.900000 0.080000 0
0.920000 0.080000 0
0.940000 0.080000 0
0.960000 0.080000 0
0.980000 0.080000 0
1.000000 0.080000 0
0.000000 0.100000 0
0.020000 0.100000 0
0.040000 0.100000 0
0.060000 0.100000 0
0.080000 0.100000 0
0.100000 0.100000 0
0.120000 0.100000 0
0.140000 0.100000 0
0.160000 0.100000 0
0.180000 0.100000 0
0.200000 0.100000 0
0.220000 0.100000 0
0.240000 0.100000 0
0.260000 0.100000 0
0.280000 0.100000 0
0.300000 0.100000 0
0.320000 0.100000 0
0.340000 0.100000 0
0.360000 0.100000 0
0.380000 0.100000 0
0.400000 0.100000 0
0.420000 0.100000 0
0.440000 0.100000 0
0.460000 0.100000 0
0.480000 0.100000 0
0.500000 0.100000 0
0.520000 0.100000 0
0.540000 0.100000 0
0.560000 0.100000 0
0.580000 0.100000 0
0.600000 0.100000 0
0.620000 0.100000 0
0.640000 0.100000 0
0.660000 0.100000 0
0.680000 0.100000 0
0.700000 0.100000 0
0.720000 0.100000 0
0.740000 0.100000 0
0.760000 0.100000 0
0.780000 0.100000 0
0.800000 0.100000 0
0.820000 0.100000 0
0.840000 0.100000 0
0.860000 0.100000 0
0.880000 0.100000 0
0.900000 0.100000 0
0.920000 0.100000 0
0.940000 0.100000 0
0.960000 0.100000 0
0.980000 0.100000 0
1.000000 0.100000 0
0.000000 0.120000 0
0.020000 0.120000 0
0.040000 0.120000 0
0.060000 0.120000 0
0.080000 0.120000 0
0.100000 0.120000 0
0.120000 0.120000 0
0.140000 0.120000 0
0.160000 0.120000 0
0.180000 0.120000 0
0.200000 0.120000 0
0.220000 0.120000 0
0.240000 0.120000 0
0.260000 0.120000 0
0.280000 0.120000 0
0.300000 0.120000 0
0.320000 0.120000 0
0.340000 0.120000 0
0.360000 0.120000 0
0.380000 0.120000 0
0.400000 0.120000 0
0.420000 0.120000 0
0.440000 0.120000 0
0.460000 0.120000 0
0.480000 0.120000 0
0.500000 0.120000 0
0.520000 0.120000 0
0.540000 0.120000 0
0.560000 0.120000 0
0.580000 0.120000 0
0.600000 0.120000 0
0.620000 0.120000 0
0.640000 0.120000 0
0.660000 0.120000 0
0.680000 0.120000 0
0.700000 0.120000 0
0.720000 0.120000 0
0.740000 0.120000 0
0.760000 0.120000 0
0.780000 0.120000 0
0.800000 0.120000 0
0.820000 0.120000 0
0.840000 0.120000 0
0.860000 0.120000 0
0.880000 0.120000 0
0.900000 0.120000 0
0.920000 0.120000 0
0.940000 0.120000 0
0.960000 0.120000 0
0.980000 0.120000 0
1.000000 0.120000 0
0.000000 0.140000 0
0.020000 0.140000 0
0.040000 0.140000 0
0.060000 0.140000 0
0.080000 0.140000 0
0.100000 0.140000 0
0.120000 0.140000 0
0.140000 0.140000 0
0.160000 0.140000 0
0.180000 0.140000 0
0.200000 0.140000 0
0.220000 0.140000 0
0.240000 0.140000 0
0.260000 0.140000 0
0.280000 0.140000 0
0.300000 0.140000 0
0.320000 0.140000 0
0.340000 0.140000 0
0.360000 0.140000 0
0.380000 0.140000 0
0.400000 0.140000 0
0.420000 0.140000 0
0.440000 0.140000 0
0.460000 0.140000 0
0.480000 0.140000 0
0.500000 0.140000 0
0.520000 0.140000 0
0.540000 0.140000 0
0.560000 0.140000 0
0.580000 0.140000 0
0.600000 0.140000 0
0.620000 0.140000 0
0.640000 0.140000 0
0.660000 0.140000 0
0.680000 0.140000 0
0.700000 0.140000 0
0.720000 0.140000 0
0.740000 0.140000 0
0.760000 0.140000 0
0.780000 0.140000 0
0.800000 0.140000 0
0.820000 0.140000 0
0.840000 0.140000 0
0.860000 0.140000 0
0.880000 0.140000 0
0.900000 0.140000 0
0.920000 0.140000 0
0.940000 0.140000 0
0.960000 0.140000 0
0.980000 0.140000 0
1.000000 0.140000 0
0.000000 0.160000 0
0.020000 0.160000 0
0.040000 0.160000 0
0.060000 0.160000 0
0.080000 0.160000 0
0.100000 0.160000 0
0.120000 0.160000 0
0.140000 0.160000 0
0.160000 0.160000 0
0.180000 0.160000 0
0.200000 0.160000 0
0.220000 0.160000 0
0.240000 0.160000 0
0.260000 0.160000 0
0.280000 0.160000 0
0.300000 0.160000 0
0.320000 0.160000 0
0.340000 0.160000 0
0.360000 0.160000 0
0.380000 0.160000 0
0.400000 0.160000 0
0.420000 0.160000 0
0.440000 0.160000 0
0.460000 0.160000 0
0.480000 0.160000 0
0.500000 0.160000 0
0.520000 0.160000 0
0.540000 0.160000 0
0.560000 0.160000 0
0.580000 0.160000 0
0.600000 0.160000 0
0.620000 0.160000 0
0.640000 0.160000 0
0.660000 0.160000 0
0.680000 0.160000 0
0.700000 0.160000 0
0.720000 0.160000 0
0.740000 0.160000 0
0.760000 0.160000 0
0.780000 0.160000 0
0.800000 0.160000 0
0.820000 0.160000 0
0.840000 0.160000 0
0.860000 0.160000 0
0.880000 0.160000 0
0.900000 0.160000 0
0.920000 0.160000 0
0.940000 0.160000 0
0.960000 0.160000 0
0.980000 0.160000 0
1.000000 0.160000 0
0.000000 0.180000 0
0.020000 0.180000 0
0.040000 0.180000 0
0.060000 0.180000 0
0.080000 0.180000 0
0.100000 0.180000 0
0.120000 0.180000 0
0.140000 0.180000 0
0.160000 0.180000 0
0.180000 0.180000 0
0.200000 0.180000 0
0.220000 0.180000 0
0.240000 0.180000 0
0.260000 0.180000 0
0.280000 0.180000 0
0.300000 0.180000 0
0.320000 0.180000 0
0.340000 0.180000 0
0.360000 0.180000 0
0.380000 0.180000 0
0.400000 0.180000 0
0.420000 0.180000 0
0.440000 0.180000 0
0.460000 0.180000 0
0.480000 0.180000 0
0.500000 0.180000 0
0.520000 0.180000 0
0.540000 0.180000 0
0.560000 0.180000 0
0.580000 0.180000 0
0.600000 0.180000 0
0.620000 0.180000 0
[...]
POINT_DATA 2601 

VECTORS velocity float
0.000000 0.000000 0
-0.000001 0.000000 0
-0.000000 0.000000 0
0.000000 0.000000 0
0.000000 0.000000 0
0.000000 0.000000 0
-0.000000 0.000000 0
-0.000000 0.000000 0
-0.000000 0.000000 0
-0.000000 0.000000 0
-0.000000 0.000000 0
0.000000 0.000000 0
0.000000 0.000000 0
0.000000 0.000000 0
0.000000 0.000000 0
-0.000000 0.000000 0
-0.000000 0.000000 0
-0.000000 0.000000 0
-0.000000 0.000000 0
-0.000000 0.000000 0
0.000000 0.000000 0
0.000000 0.000000 0
-0.000000 0.000000 0
-0.000000 0.000000 0
-0.000000 0.000000 0
-0.000000 0.000000 0
-0.000000 0.000000 0
0.000000 0.000000 0
0.000000 0.000000 0
0.000000 0.000000 0
0.000000 0.000000 0
0.000000 0.000000 0
-0.000000 0.000000 0
-0.000000 0.000000 0
-0.000000 0.000000 0
-0.000000 0.000000 0
-0.000000 0.000000 0
0.000000 0.000000 0
0.000000 0.000000 0
0.000000 0.000000 0
0.000000 0.000000 0
0.000000 0.000000 0
-0.000000 0.000000 0
-0.000000 0.000000 0
-0.000000 0.000000 0
-0.000000 0.000000 0
-0.000000 0.000000 0
-0.000000 0.000000 0
0.000000 0.000000 0
0.000000 0.000000 0
0.000000 0.000000 0
0.000000 -0.000001 0
-0.000007 0.000009 0
-0.000357 0.000248 0
-0.001134 0.000513 0
-0.002303 0.000733 0
-0.003769 0.000882 0
-0.005415 0.000953 0
-0.007117 0.000948 0
-0.008755 0.000876 0
-0.010225 0.000748 0
-0.011444 0.000578 0
-0.012353 0.000383 0
-0.012917 0.000177 0
-0.013122 -0.000030 0
-0.012976 -0.000227 0
-0.012496 -0.000406 0
-0.011716 -0.000562 0
-0.010674 -0.000692 0
-0.009415 -0.000794 0
-0.007988 -0.000867 0
-0.006441 -0.000912 0
-0.004822 -0.000931 0
-0.003175 -0.000925 0
-0.001543 -0.000897 0
0.000036 -0.000849 0
0.001530 -0.000786 0
0.002911 -0.000710 0
0.004157 -0.000624 0
0.005253 -0.000533 0
0.006187 -0.000438 0
0.006955 -0.000342 0
0.007554 -0.000247 0
0.007985 -0.000154 0
0.008254 -0.000066 0
0.008367 0.000017 0
0.008333 0.000095 0
0.008163 0.000167 0
0.007866 0.000232 0
0.007453 0.000292 0
0.006935 0.000346 0
0.006324 0.000393 0
0.005632 0.000434 0
0.004873 0.000466 0
0.004065 0.000488 0
0.003230 0.000494 0
0.002400 0.000479 0
0.001614 0.000435 0
0.000923 0.000352 0
0.000390 0.000226 0
0.000074 0.000074 0
0.000000 -0.000000 0
0.000000 -0.000000 0
-0.000230 0.000356 0
-0.001098 0.001129 0
-0.002648 0.001947 0
-0.004814 0.002635 0
-0.007454 0.003113 0
-0.010385 0.003348 0
-0.013411 0.003339 0
-0.016336 0.003108 0
-0.018990 0.002689 0
-0.021231 0.002128 0
-0.022956 0.001473 0
-0.024098 0.000770 0
-0.024629 0.000059 0
-0.024551 -0.000626 0
-0.023890 -0.001260 0
-0.022692 -0.001823 0
-0.021019 -0.002300 0
-0.018944 -0.002685 0
-0.016544 -0.002974 0
-0.013903 -0.003166 0
-0.011100 -0.003266 0
-0.008216 -0.003278 0
-0.005323 -0.003211 0
-0.002491 -0.003073 0
0.000220 -0.002875 0
0.002759 -0.002627 0
0.005081 -0.002342 0
0.007154 -0.002031 0
0.008956 -0.001702 0
0.010470 -0.001366 0
0.011690 -0.001030 0
0.012616 -0.000700 0
0.013252 -0.000382 0
0.013608 -0.000080 0
0.013697 0.000204 0
0.013537 0.000468 0
0.013144 0.000710 0
0.012538 0.000930 0
0.011738 0.001129 0
0.010766 0.001303 0
0.009645 0.001451 0
0.008401 0.001567 0
0.007067 0.001643 0
0.005682 0.001665 0
0.004297 0.001617 0
0.002976 0.001476 0
0.001798 0.001223 0
0.000852 0.000849 0
0.000228 0.000390 0
0.000000 0.000000 0
0.000000 0.000000 0
-0.000476 0.001109 0
-0.001882 0.002667 0
-0.004169 0.004229 0
-0.007221 0.005538 0
-0.010858 0.006453 0
-0.014859 0.006909 0
-0.018979 0.006899 0
-0.022982 0.006455 0
-0.026649 0.005643 0
-0.029801 0.004544 0
-0.032301 0.003250 0
-0.034059 0.001850 0
-0.035029 0.000423 0
-0.035204 -0.000967 0
-0.034609 -0.002265 0
-0.033296 -0.003433 0
-0.031334 -0.004440 0
-0.028811 -0.005268 0
-0.025823 -0.005908 0
-0.022469 -0.006357 0
-0.018856 -0.006618 0
-0.015083 -0.006702 0
-0.011251 -0.006621 0
-0.007450 -0.006393 0
-0.003763 -0.006036 0
-0.000262 -0.005571 0
0.002989 -0.005020 0
0.005940 -0.004408 0
0.008551 -0.003754 0
0.010798 -0.003076 0
0.012665 -0.002392 0
0.014145 -0.001716 0
0.015242 -0.001058 0
0.015963 -0.000428 0
0.016323 0.000166 0
0.016340 0.000720 0
0.016038 0.001231 0
0.015441 0.001698 0
0.014576 0.002117 0
0.013471 0.002486 0
0.012157 0.002799 0
0.010671 0.003045 0
0.009053 0.003207 0
0.007356 0.003264 0
0.005640 0.003184 0
0.003983 0.002933 0
0.002477 0.002476 0
0.001228 0.001796 0
0.000356 0.000926 0
0.000000 0.000000 0
0.000000 0.000000 0
-0.000689 0.002240 0
-0.002584 0.004821 0
-0.005540 0.007284 0
-0.009383 0.009324 0
-0.013896 0.010750 0
-0.018827 0.011469 0
-0.023903 0.011463 0
-0.028856 0.010778 0
-0.033440 0.009508 0
-0.037449 0.007780 0
-0.040722 0.005731 0
-0.043150 0.003497 0
-0.044670 0.001204 0
-0.045264 -0.001046 0
-0.044953 -0.003168 0
-0.043783 -0.005097 0
-0.041826 -0.006784 0
-0.039172 -0.008197 0
-0.035923 -0.009316 0
-0.032190 -0.010133 0
-0.028089 -0.010652 0
-0.023736 -0.010883 0
-0.019245 -0.010844 0
-0.014726 -0.010561 0
-0.010278 -0.010062 0
-0.005992 -0.009379 0
-0.001947 -0.008544 0
0.001790 -0.007592 0
0.005165 -0.006561 0
0.008136 -0.005480 0
0.010676 -0.004377 0
0.012772 -0.003277 0
0.014420 -0.002199 0
0.015623 -0.001161 0
0.016393 -0.000173 0
0.016749 0.000752 0
0.016714 0.001609 0
0.016316 0.002393 0
0.015586 0.003099 0
0.014557 0.003722 0
0.013266 0.004251 0
0.011755 0.004671 0
0.010069 0.004958 0
0.008267 0.005078 0
0.006414 0.004989 0
0.004595 0.004639 0
0.002907 0.003978 0
0.001473 0.002970 0
0.000439 0.001618 0
0.000000 0.000000 0
0.000000 0.000000 0
-0.000861 0.003694 0
-0.003173 0.007516 0
-0.006713 0.011026 0
-0.011255 0.013894 0
-0.016547 0.015897 0
-0.022308 0.016916 0
-0.028245 0.016928 0
-0.034069 0.015993 0
-0.039517 0.014236 0
-0.044364 0.011826 0
-0.048431 0.008951 0
-0.051592 0.005797 0
-0.053772 0.002537 0
-0.054939 -0.000683 0
-0.055105 -0.003746 0
-0.054307 -0.006559 0
-0.052612 -0.009051 0
-0.050103 -0.011172 0
-0.046884 -0.012890 0
-0.043063 -0.014191 0
-0.038762 -0.015072 0
-0.034103 -0.015545 0
-0.029208 -0.015631 0
-0.024197 -0.015360 0
-0.019185 -0.014769 0
-0.014275 -0.013902 0
-0.009563 -0.012802 0
-0.005127 -0.011519 0
-0.001039 -0.010099 0
0.002646 -0.008588 0
0.005888 -0.007029 0
0.008658 -0.005459 0
0.010943 -0.003908 0
0.012739 -0.002402 0
0.014054 -0.000961 0
0.014901 0.000399 0
0.015301 0.001664 0
0.015283 0.002826 0
0.014877 0.003876 0
0.014120 0.004806 0
0.013051 0.005602 0
0.011714 0.006242 0
0.010157 0.006695 0
0.008440 0.006919 0
0.006629 0.006856 0
0.004809 0.006440 0
0.003084 0.005598 0
0.001583 0.004265 0
0.000478 0.002398 0
0.000000 0.000000 0
0.000000 0.000000 0
-0.000995 0.005413 0
-0.003650 0.010672 0
-0.007689 0.015366 0
-0.012840 0.019157 0
-0.018821 0.021803 0
-0.025329 0.023167 0
-0.032054 0.023224 0
-0.038695 0.022050 0
-0.044974 0.019802 0
-0.050654 0.016693 0
-0.055546 0.012959 0
-0.059508 0.008839 0
-0.062453 0.004551 0
-0.064334 0.000287 0
-0.065150 -0.003801 0
-0.064927 -0.007590 0
-0.063721 -0.010988 0
-0.061606 -0.013925 0
-0.058674 -0.016356 0
-0.055030 -0.018255 0
-0.050790 -0.019612 0
-0.046075 -0.020437 0
-0.041010 -0.020750 0
-0.035720 -0.020584 0
-0.030328 -0.019985 0
-0.024948 -0.019001 0
-0.019688 -0.017692 0
-0.014642 -0.016116 0
-0.009894 -0.014335 0
-0.005513 -0.012407 0
-0.001554 -0.010389 0
0.001939 -0.008331 0
0.004941 -0.006280 0
0.007436 -0.004272 0
0.009421 -0.002335 0
0.010904 -0.000496 0
0.011901 0.001227 0
0.012433 0.002817 0
0.012532 0.004262 0
0.012232 0.005548 0
0.011573 0.006658 0
0.010598 0.007565 0
0.009356 0.008232 0
0.007902 0.008607 0
0.006302 0.008619 0
0.004640 0.008185 0
0.003017 0.007204 0
0.001569 0.005576 0
0.000480 0.003201 0
0.000000 0.000000 0
0.000000 -0.000000 0
-0.001097 0.007344 0
-0.004029 0.014210 0
-0.008482 0.020216 0
-0.014155 0.025026 0
-0.020740 0.028386 0
-0.027918 0.030150 0
-0.035366 0.030294 0
-0.042775 0.028913 0
-0.049859 0.026196 0
-0.056374 0.022397 0
-0.062118 0.017804 0
-0.066943 0.012704 0
-0.070745 0.007363 0
-0.073467 0.002014 0
-0.075087 -0.003153 0
-0.075621 -0.007988 0
-0.075108 -0.012372 0
-0.073607 -0.016219 0
-0.071196 -0.019466 0
-0.067968 -0.022075 0
-0.064028 -0.024028 0
-0.059490 -0.025325 0
-0.054476 -0.025985 0
-0.049110 -0.026042 0
-0.043517 -0.025541 0
-0.037820 -0.024542 0
-0.032135 -0.023108 0
-0.026570 -0.021313 0
-0.021222 -0.019228 0
-0.016174 -0.016927 0
-0.011496 -0.014481 0
-0.007246 -0.011954 0
-0.003464 -0.009405 0
-0.000181 -0.006882 0
0.002589 -0.004429 0
0.004844 -0.002081 0
0.006589 0.000135 0
0.007837 0.002195 0
0.008613 0.004077 0
0.008949 0.005765 0
0.008880 0.007236 0
0.008448 0.008459 0
0.007697 0.009392 0
0.006679 0.009972 0
0.005455 0.010118 0
0.004103 0.009726 0
0.002720 0.008669 0
0.001440 0.006802 0
0.000448 0.003968 0
0.000000 0.000000 0
0.000000 -0.000000 0
-0.001174 0.009442 0
-0.004324 0.018057 0
-0.009114 0.025492 0
-0.015224 0.031415 0
-0.022329 0.035565 0
-0.030100 0.037794 0
-0.038206 0.038082 0
-0.046333 0.036543 0
-0.054193 0.033401 0
-0.061534 0.028952 0
-0.068152 0.023528 0
-0.073887 0.017466 0
-0.078624 0.011075 0
-0.082291 0.004629 0
-0.084850 -0.001646 0
-0.086299 -0.007570 0
-0.086657 -0.013002 0
-0.085967 -0.017837 0
-0.084288 -0.021995 0
-0.081695 -0.025423 0
-0.078277 -0.028091 0
-0.074136 -0.029989 0
-0.069383 -0.031130 0
-0.064138 -0.031543 0
-0.058525 -0.031274 0
-0.052667 -0.030383 0
-0.046688 -0.028942 0
-0.040705 -0.027030 0
-0.034827 -0.024731 0
-0.029153 -0.022132 0
-0.023767 -0.019317 0
-0.018743 -0.016364 0
-0.014137 -0.013345 0
-0.009994 -0.010326 0
-0.006342 -0.007360 0
-0.003199 -0.004495 0
-0.000571 -0.001766 0
0.001548 0.000793 0
0.003167 0.003150 0
0.004310 0.005281 0
0.005006 0.007159 0
0.005291 0.008749 0
0.005205 0.010001 0
0.004791 0.010848 0
0.004105 0.011196 0
0.003213 0.010920 0
0.002204 0.009867 0
0.001204 0.007847 0
0.000386 0.004642 0
0.000000 0.000000 0
0.000000 -0.000000 0
-0.001230 0.011668 0
-0.004545 0.022149 0
-0.009601 0.031116 0
-0.016068 0.038241 0
-0.023611 0.043262 0
-0.031896 0.046027 0
-0.040591 0.046528 0
-0.049381 0.044900 0
-0.057976 0.041396 0
-0.066125 0.036356 0
-0.073619 0.030157 0
-0.080293 0.023176 0
-0.086020 0.015768 0
-0.090715 0.008240 0
-0.094322 0.000854 0
-0.096817 -0.006181 0
-0.098199 -0.012704 0
-0.098492 -0.018588 0
-0.097731 -0.023738 0
-0.095971 -0.028086 0
-0.093281 -0.031587 0
-0.089744 -0.034219 0
-0.085457 -0.035983 0
-0.080529 -0.036900 0
-0.075076 -0.037013 0
-0.069221 -0.036378 0
-0.063089 -0.035070 0
-0.056805 -0.033173 0
-0.050485 -0.030781 0
-0.044243 -0.027988 0
-0.038179 -0.024891 0
-0.032381 -0.021584 0
-0.026925 -0.018153 0
-0.021869 -0.014677 0
-0.017261 -0.011224 0
-0.013133 -0.007853 0
-0.009504 -0.004612 0
-0.006381 -0.001544 0
-0.003765 0.001315 0
-0.001652 0.003926 0
-0.000022 0.006255 0
0.001151 0.008261 0
0.001899 0.009892 0
0.002256 0.011071 0
0.002265 0.011697 0
0.001981 0.011627 0
0.001479 0.010678 0
0.000865 0.008620 0
0.000296 0.005171 0
0.000000 0.000000 0
0.000000 -0.000000 0
-0.001268 0.013987 0
-0.004703 0.026428 0
-0.009961 0.037015 0
-0.016707 0.045425 0
-0.024607 0.051394 0
-0.033326 0.054774 0
-0.042535 0.055566 0
-0.051921 0.053928 0
-0.061200 0.050145 0
-0.070121 0.044595 0
-0.078476 0.037696 0
-0.086093 0.029867 0
-0.092840 0.021498 0
-0.098617 0.012931 0
-0.103351 0.004455 0
-0.106994 -0.003693 0
-0.109528 -0.011327 0
-0.110948 -0.018305 0
-0.111268 -0.024515 0
-0.110518 -0.029873 0
-0.108743 -0.034318 0
-0.106005 -0.037813 0
-0.102380 -0.040345 0
-0.097961 -0.041925 0
-0.092854 -0.042582 0
-0.087172 -0.042370 0
-0.081041 -0.041358 0
-0.074585 -0.039634 0
-0.067932 -0.037293 0
-0.061202 -0.034439 0
-0.054512 -0.031179 0
-0.047964 -0.027618 0
-0.041652 -0.023857 0
-0.035654 -0.019989 0
-0.030034 -0.016097 0
-0.024842 -0.012253 0
-0.020114 -0.008518 0
-0.015874 -0.004945 0
-0.012134 -0.001579 0
-0.008901 0.001537 0
-0.006178 0.004356 0
-0.003952 0.006828 0
-0.002206 0.008897 0
-0.000917 0.010481 0
-0.000056 0.011470 0
0.000414 0.011707 0
0.000547 0.010983 0
0.000426 0.009030 0
0.000178 0.005506 0
0.000000 0.000000 0
0.000000 -0.000000 0
-0.001291 0.016370 0
-0.004805 0.030841 0
-0.010205 0.043120 0
-0.017158 0.052888 0
-0.025335 0.059881 0
-0.034406 0.063954 0
-0.044048 0.065123 0
-0.053957 0.063564 0
-0.063854 0.059597 0
-0.073494 0.053632 0
-0.082671 0.046129 0
-0.091213 0.037541 0
-0.098980 0.028292 0
-0.105862 0.018751 0
-0.111770 0.009232 0
-0.116637 -0.000004 0
-0.120414 -0.008750 0
-0.123076 -0.016848 0
-0.124611 -0.024168 0
-0.125024 -0.030611 0
-0.124333 -0.036100 0
-0.122572 -0.040582 0
-0.119796 -0.044026 0
-0.116076 -0.046427 0
-0.111499 -0.047802 0
-0.106169 -0.048191 0
-0.100202 -0.047657 0
-0.093723 -0.046283 0
-0.086861 -0.044164 0
-0.079747 -0.041408 0
-0.072505 -0.038129 0
-0.065257 -0.034443 0
-0.058111 -0.030463 0
-0.051164 -0.026295 0
-0.044501 -0.022036 0
-0.038190 -0.017773 0
-0.032286 -0.013581 0
-0.026832 -0.009524 0
-0.021858 -0.005657 0
-0.017384 -0.002030 0
-0.013425 0.001305 0
-0.009993 0.004290 0
-0.007091 0.006856 0
-0.004713 0.008921 0
-0.002849 0.010365 0
-0.001483 0.011024 0
-0.000588 0.010667 0
-0.000113 0.008989 0
0.000032 0.005597 0
0.000000 0.000000 0
0.000000 -0.000000 0
-0.001301 0.018792 0
-0.004859 0.035341 0
-0.010346 0.049368 0
-0.017439 0.060556 0
-0.025815 0.068642 0
-0.035155 0.073487 0
-0.045146 0.075117 0
-0.055494 0.073733 0
-0.065931 0.069683 0
-0.076221 0.063413 0
-0.086161 0.055414 0
-0.095581 0.046176 0
-0.104339 0.036147 0
-0.112315 0.025720 0
-0.119410 0.015230 0
-0.125536 0.004951 0
-0.130618 -0.004888 0
-0.134606 -0.014108 0
-0.137462 -0.022567 0
-0.139162 -0.030152 0
-0.139698 -0.036770 0
-0.139076 -0.042350 0
-0.137322 -0.046842 0
-0.134481 -0.050222 0
-0.130620 -0.052488 0
-0.125824 -0.053666 0
-0.120196 -0.053804 0
-0.113856 -0.052975 0
-0.106930 -0.051269 0
-0.099553 -0.048795 0
-0.091860 -0.045668 0
-0.083985 -0.042012 0
-0.076052 -0.037950 0
-0.068178 -0.033599 0
-0.060466 -0.029072 0
-0.053006 -0.024467 0
-0.045874 -0.019876 0
-0.039132 -0.015373 0
-0.032832 -0.011027 0
-0.027012 -0.006896 0
-0.021703 -0.003035 0
-0.016933 0.000495 0
-0.012729 0.003617 0
-0.009115 0.006239 0
-0.006103 0.008239 0
-0.003704 0.009445 0
-0.001924 0.009613 0
-0.000751 0.008410 0
-0.000142 0.005393 0
0.000000 -0.000000 0
0.000000 -0.000000 0
-0.001300 0.021229 0
-0.004870 0.039886 0
-0.010395 0.055700 0
-0.017564 0.068357 0
-0.026066 0.077597 0
-0.035592 0.083285 0
-0.045845 0.085462 0
-0.056543 0.084350 0
-0.067432 0.080323 0
-0.078285 0.073862 0
-0.088909 0.065489 0
-0.099136 0.055719 0
-0.108826 0.045027 0
-0.117855 0.033822 0
-0.126112 0.022452 0
-0.133494 0.011204 0
-0.139909 0.000320 0
-0.145272 -0.010004 0
-0.149520 -0.019612 0
-0.152602 -0.028375 0
-0.154482 -0.036186 0
-0.155135 -0.042958 0
-0.154558 -0.048621 0
-0.152767 -0.053129 0
-0.149800 -0.056459 0
-0.145720 -0.058614 0
-0.140613 -0.059625 0
-0.134584 -0.059549 0
-0.127755 -0.058466 0
-0.120259 -0.056477 0
-0.112238 -0.053697 0
-0.103834 -0.050251 0
-0.095188 -0.046270 0
-0.086434 -0.041881 0
-0.077694 -0.037208 0
-0.069081 -0.032365 0
-0.060692 -0.027454 0
-0.052614 -0.022566 0
-0.044917 -0.017778 0
-0.037665 -0.013159 0
-0.030910 -0.008773 0
-0.024698 -0.004683 0
-0.019076 -0.000962 0
-0.014093 0.002294 0
-0.009797 0.004955 0
-0.006238 0.006845 0
-0.003455 0.007713 0
-0.001487 0.007208 0
-0.000345 0.004846 0
0.000000 -0.000000 0
0.000000 -0.000000 0
-0.001289 0.023662 0
-0.004844 0.044437 0
-0.010364 0.062062 0
-0.017551 0.076226 0
-0.026107 0.086670 0
-0.035740 0.093266 0
-0.046166 0.096068 0
-0.057122 0.095321 0
-0.068365 0.091425 0
-0.079684 0.084889 0
-0.090894 0.076265 0
-0.101837 0.066094 0
-0.112374 0.054866 0
-0.122380 0.043006 0
-0.131740 0.030869 0
-0.140340 0.018749 0
-0.148070 0.006890 0
-0.154821 -0.004497 0
-0.160498 -0.015237 0
-0.165023 -0.025190 0
-0.168332 -0.034236 0
-0.170371 -0.042273 0
-0.171103 -0.049211 0
-0.170513 -0.054980 0
-0.168609 -0.059535 0
-0.165424 -0.062853 0
-0.161019 -0.064940 0
-0.155483 -0.065833 0
-0.148923 -0.065595 0
-0.141469 -0.064312 0
-0.133262 -0.062093 0
-0.124452 -0.059062 0
-0.115191 -0.055350 0
-0.105630 -0.051093 0
-0.095911 -0.046424 0
-0.086168 -0.041469 0
-0.076522 -0.036343 0
-0.067083 -0.031148 0
-0.057947 -0.025976 0
-0.049200 -0.020904 0
-0.040919 -0.016002 0
-0.033177 -0.011339 0
-0.026044 -0.006988 0
-0.019591 -0.003039 0
-0.013902 0.000385 0
-0.009064 0.003103 0
-0.005172 0.004862 0
-0.002315 0.005300 0
-0.000575 0.003907 0
0.000000 -0.000000 0
0.000000 0.000000 0
-0.001270 0.026074 0
-0.004787 0.048961 0
-0.010263 0.068406 0
-0.017415 0.084100 0
-0.025961 0.095786 0
-0.035623 0.103345 0
-0.046137 0.106844 0
-0.057254 0.106548 0
-0.068750 0.102886 0
-0.080427 0.096391 0
-0.092114 0.087641 0
-0.103661 0.077199 0
-0.114936 0.065570 0
-0.125817 0.053188 0
-0.136187 0.040411 0
-0.145927 0.027534 0
-0.154914 0.014801 0
-0.163024 0.002423 0
-0.170131 -0.009410 0
-0.176125 -0.020541 0
-0.180913 -0.030839 0
-0.184414 -0.040187 0
-0.186560 -0.048479 0
-0.187301 -0.055624 0
-0.186610 -0.061548 0
-0.184488 -0.066203 0
-0.180966 -0.069566 0
-0.176106 -0.071646 0
-0.169999 -0.072480 0
-0.162761 -0.072138 0
-0.154529 -0.070714 0
-0.145455 -0.068322 0
-0.135702 -0.065092 0
-0.125432 -0.061161 0
-0.114808 -0.056670 0
-0.103985 -0.051754 0
-0.093109 -0.046539 0
-0.082312 -0.041141 0
-0.071719 -0.035661 0
-0.061441 -0.030187 0
-0.051582 -0.024796 0
-0.042242 -0.019559 0
-0.033520 -0.014548 0
-0.025519 -0.009848 0
-0.018353 -0.005572 0
-0.012149 -0.001886 0
-0.007056 0.000964 0
-0.003229 0.002611 0
-0.000831 0.002531 0
0.000000 -0.000000 0
0.000000 0.000000 0
-0.001245 0.028449 0
-0.004703 0.053429 0
-0.010102 0.074690 0
-0.017173 0.091924 0
-0.025649 0.104878 0
-0.035270 0.113442 0
-0.045787 0.117699 0
-0.056971 0.117934 0
-0.068615 0.114598 0
-0.080538 0.108253 0
-0.092580 0.099499 0
-0.104606 0.088915 0
-0.116491 0.077022 0
-0.128121 0.064257 0
-0.139380 0.050978 0
-0.150148 0.037475 0
-0.160297 0.023987 0
-0.169691 0.010721 0
-0.178186 -0.002136 0
-0.185635 -0.014409 0
-0.191915 -0.025947 0
-0.196920 -0.036625 0
-0.200551 -0.046324 0
-0.202723 -0.054931 0
-0.203373 -0.062348 0
-0.202466 -0.068496 0
-0.199997 -0.073322 0
-0.195997 -0.076800 0
-0.190529 -0.078940 0
-0.183692 -0.079782 0
-0.175612 -0.079398 0
-0.166438 -0.077889 0
-0.156336 -0.075373 0
-0.145480 -0.071987 0
-0.134051 -0.067871 0
-0.122224 -0.063169 0
-0.110168 -0.058016 0
-0.098045 -0.052538 0
-0.086005 -0.046847 0
-0.074187 -0.041040 0
-0.062725 -0.035201 0
-0.051748 -0.029402 0
-0.041385 -0.023712 0
-0.031774 -0.018207 0
-0.023066 -0.012986 0
-0.015434 -0.008194 0
-0.009074 -0.004057 0
-0.004216 -0.000925 0
-0.001109 0.000677 0
0.000000 -0.000000 0
0.000000 0.000000 0
-0.001215 0.030777 0
-0.004599 0.057818 0
-0.009893 0.080876 0
-0.016843 0.099647 0
-0.025196 0.113883 0
-0.034709 0.123482 0
-0.045151 0.128545 0
-0.056310 0.129377 0
-0.067998 0.126452 0
-0.080050 0.120356 0
-0.092322 0.111709 0
-0.104692 0.101110 0
-0.117046 0.089085 0
-0.129278 0.076077 0
-0.141279 0.062438 0
-0.152934 0.048451 0
-0.164113 0.034344 0
-0.174675 0.020312 0
-0.184465 0.006534 0
-0.193316 -0.006812 0
-0.201064 -0.019554 0
-0.207576 -0.031551 0
-0.212724 -0.042676 0
-0.216394 -0.052801 0
-0.218484 -0.061805 0
-0.218921 -0.069579 0
-0.217660 -0.076036 0
-0.214694 -0.081114 0
-0.210054 -0.084785 0
-0.203811 -0.087055 0
-0.196072 -0.087968 0
-0.186977 -0.087599 0
-0.176691 -0.086049 0
-0.165396 -0.083446 0
-0.153285 -0.079927 0
-0.140555 -0.075636 0
-0.127400 -0.070718 0
-0.114007 -0.065305 0
-0.100556 -0.059519 0
-0.087217 -0.053467 0
-0.074155 -0.047235 0
-0.061529 -0.040899 0
-0.049503 -0.034521 0
-0.038250 -0.028166 0
-0.027960 -0.021913 0
-0.018853 -0.015878 0
-0.011185 -0.010253 0
-0.005255 -0.005355 0
-0.001404 -0.001686 0
0.000000 -0.000000 0
0.000000 0.000000 0
-0.001181 0.033048 0
-0.004478 0.062107 0
-0.009645 0.086934 0
-0.016441 0.107227 0
-0.024625 0.122744 0
-0.033971 0.133396 0
-0.044264 0.139300 0
-0.055311 0.140781 0
-0.066942 0.138338 0
-0.079007 0.132577 0
-0.091382 0.124141 0
-0.103954 0.113639 0
-0.116626 0.101608 0
-0.129300 0.088491 0
-0.141879 0.074635 0
-0.154254 0.060310 0
-0.166301 0.045729 0
-0.177879 0.031072 0
-0.188827 0.016504 0
-0.198974 0.002191 0
-0.208128 -0.011687 0