# vtk DataFile Version 2.0
generated by CFD-lab course output (written by Tobias Neckel) 
ASCII

DATASET STRUCTURED_GRID
DIMENSIONS  51 51 1 
POINTS 2601 float

0.000000 0.000000 0
0.020000 0.000000 0
0.040000 0.000000 0
0.060000 0.000000 0
0.080000 0.000000 0
0.100000 0.000000 0
0.120000 0.000000 0
0.140000 0.000000 0
0.160000 0.000000 0
0.180000 0.000000 0
0.200000 0.000000 0
0.220000 0.000000 0
0.240000 0.000000 0
0.260000 0.000000 0
0.280000 0.000000 0
0.300000 0.000000 0
0.320000 0.000000 0
0.340000 0.000000 0
0.360000 0.000000 0
0.380000 0.000000 0
0.400000 0.000000 0
0.420000 0.000000 0
0.440000 0.000000 0
0.460000 0.000000 0
0.480000 0.000000 0
0.500000 0.000000 0
0.520000 0.000000 0
0.540000 0.000000 0
0.560000 0.000000 0
0.580000 0.000000 0
0.600000 0.000000 0
0.620000 0.000000 0
0.640000 0.000000 0
0.660000 0.000000 0
0.680000 0.000000 0
0.700000 0.000000 0
0.720000 0.000000 0
0.740000 0.000000 0
0.760000 0.000000 0
0.780000 0.000000 0
0.800000 0.000000 0
0.820000 0.000000 0
0.840000 0.000000 0
0.860000 0.000000 0
0.880000 0.000000 0
0.900000 0.000000 0
0.920000 0.000000 0
0.940000 0.000000 0
0.960000 0.000000 0
0.980000 0.000000 0
1.000000 0.000000 0
0.000000 0.020000 0
0.020000 0.020000 0
0.040000 0.020000 0
0.060000 0.020000 0
0.080000 0.020000 0
0.100000 0.020000 0
0.120000 0.020000 0
0.140000 0.020000 0
0.160000 0.020000 0
0.180000 0.020000 0
0.200000 0.020000 0
0.220000 0.020000 0
0.240000 0.020000 0
0.260000 0.020000 0
0.280000 0.020000 0
0.300000 0.020000 0
0.320000 0.020000 0
0.340000 0.020000 0
0.360000 0.020000 0
0.380000 0.020000 0
0.400000 0.020000 0
0.420000 0.020000 0
0.440000 0.020000 0
0.460000 0.020000 0
0.480000 0.020000 0
0.500000 0.020000 0
0.520000 0.020000 0
0.540000 0.020000 0
0.560000 0.020000 0
0.580000 0.020000 0
0.600000 0.020000 0
0.620000 0.020000 0
0.640000 0.020000 0
0.660000 0.020000 0
0.680000 0.020000 0
0.700000 0.020000 0
0.720000 0.020000 0
0.740000 0.020000 0
0.760000 0.020000 0
0.780000 0.020000 0
0.800000 0.020000 0
0.820000 0.020000 0
0.840000 0.020000 0
0.860000 0.020000 0
0.880000 0.020000 0
0.900000 0.020000 0
0.920000 0.020000 0
0.940000 0.020000 0
0.960000 0.020000 0
0.980000 0.020000 0
1.000000 0.020000 0
0.000000 0.040000 0
0.020000 0.040000 0
0.040000 0.040000 0
0.060000 0.040000 0
0.080000 0.040000 0
0.100000 0.040000 0
0.120000 0.040000 0
0.140000 0.040000 0
0.160000 0.040000 0
0.180000 0.040000 0
0.200000 0.040000 0
0.220000 0.040000 0
0.240000 0.040000 0
0.260000 0.040000 0
0.280000 0.040000 0
0.300000 0.040000 0
0.320000 0.040000 0
0.340000 0.040000 0
0.360000 0.040000 0
0.380000 0.040000 0
0.400000 0.040000 0
0.420000 0.040000 0
0.440000 0.040000 0
0.460000 0.040000 0
0.480000 0.040000 0
0.500000 0.040000 0
0.520000 0.040000 0
0.540000 0.040000 0
0.560000 0.040000 0
0.580000 0.040000 0
0.600000 0.040000 0
0.620000 0.040000 0
0.640000 0.040000 0
0.660000 0.040000 0
0.680000 0.040000 0
0.700000 0.040000 0
0.720000 0.040000 0
0.740000 0.040000 0
0.760000 0.040000 0
0.780000 0.040000 0
0.800000 0.040000 0
0.820000 0.040000 0
0.840000 0.040000 0
0.860000 0.040000 0
0.880000 0.040000 0
0.900000 0.040000 0
0.920000 0.040000 0
0.940000 0.040000 0
0.960000 0.040000 0
0.980000 0.040000 0
1.000000 0.040000 0
0.000000 0.060000 0
0.020000 0.060000 0
0.040000 0.060000 0
0.060000 0.060000 0
0.080000 0.060000 0
0.100000 0.060000 0
0.120000 0.060000 0
0.140000 0.060000 0
0.160000 0.060000 0
0.180000 0.060000 0
0.200000 0.060000 0
0.220000 0.060000 0
0.240000 0.060000 0
0.260000 0.060000 0
0.280000 0.060000 0
0.300000 0.060000 0
0.320000 0.060000 0
0.340000 0.060000 0
0.360000 0.060000 0
0.380000 0.060000 0
0.400000 0.060000 0
0.420000 0.060000 0
0.440000 0.060000 0
0.460000 0.060000 0
0.480000 0.060000 0
0.500000 0.060000 0
0.520000 0.060000 0
0.540000 0.060000 0
0.560000 0.060000 0
0.580000 0.060000 0
0.600000 0.060000 0
0.620000 0.060000 0
0.640000 0.060000 0
0.660000 0.060000 0
0.680000 0.060000 0
0.700000 0.060000 0
0.720000 0.060000 0
0.740000 0.060000 0
0.760000 0.060000 0
0.780000 0.060000 0
0.800000 0.060000 0
0.820000 0.060000 0
0.840000 0.060000 0
0.860000 0.060000 0
0.880000 0.060000 0
0.900000 0.060000 0
0.920000 0.060000 0
0.940000 0.060000 0
0.960000 0.060000 0
0.980000 0.060000 0
1.000000 0.060000 0
0.000000 0.080000 0
0.020000 0.080000 0
0.040000 0.080000 0
0.060000 0.080000 0
0.080000 0.080000 0
0.100000 0.080000 0
0.120000 0.080000 0
0.140000 0.080000 0
0.160000 0.080000 0
0.180000 0.080000 0
0.200000 0.080000 0
0.220000 0.080000 0
0.240000 0.080000 0
0.260000 0.080000 0
0.280000 0.080000 0
0.300000 0.080000 0
0.320000 0.080000 0
0.340000 0.080000 0
0.360000 0.080000 0
0.380000 0.080000 0
0.400000 0.080000 0
0.420000 0.080000 0
0.440000 0.080000 0
0.460000 0.080000 0
0.480000 0.080000 0
0.500000 0.080000 0
0.520000 0.080000 0
0.540000 0.080000 0
0.560000 0.080000 0
0.580000 0.080000 0
0.600000 0.080000 0
0.620000 0.080000 0
0.640000 0.080000 0
0.660000 0.080000 0
0.680000 0.080000 0
0.700000 0.080000 0
0.720000 0.080000 0
0.740000 0.080000 0
0.760000 0.080000 0
0.780000 0.080000 0
0.800000 0.080000 0
0.820000 0.080000 0
0.840000 0.080000 0
0.860000 0.080000 0
0.880000 0.080000 0
0.900000 0.080000 0
0.920000 0.080000 0
0.940000 0.080000 0
0.960000 0.080000 0
0.980000 0.080000 0
1.000000 0.080000 0
0.000000 0.100000 0
0.020000 0.100000 0
0.040000 0.100000 0
0.060000 0.100000 0
0.080000 0.100000 0
0.100000 0.100000 0
0.120000 0.100000 0
0.140000 0.100000 0
0.160000 0.100000 0
0.180000 0.100000 0
0.200000 0.100000 0
0.220000 0.100000 0
0.240000 0.100000 0
0.260000 0.100000 0
0.280000 0.100000 0
0.300000 0.100000 0
0.320000 0.100000 0
0.340000 0.100000 0
0.360000 0.100000 0
0.380000 0.100000 0
0.400000 0.100000 0
0.420000 0.100000 0
0.440000 0.100000 0
0.460000 0.100000 0
0.480000 0.100000 0
0.500000 0.100000 0
0.520000 0.100000 0
0.540000 0.100000 0
0.560000 0.100000 0
0.580000 0.100000 0
0.600000 0.100000 0
0.620000 0.100000 0
0.640000 0.100000 0
0.660000 0.100000 0
0.680000 0.100000 0
0.700000 0.100000 0
0.720000 0.100000 0
0.740000 0.100000 0
0.760000 0.100000 0
0.780000 0.100000 0
0.800000 0.100000 0
0.820000 0.100000 0
0.840000 0.100000 0
0.860000 0.100000 0
0.880000 0.100000 0
0.900000 0.100000 0
0.920000 0.100000 0
0.940000 0.100000 0
0.960000 0.100000 0
0.980000 0.100000 0
1.000000 0.100000 0
0.000000 0.120000 0
0.020000 0.120000 0
0.040000 0.120000 0
0.060000 0.120000 0
0.080000 0.120000 0
0.100000 0.120000 0
0.120000 0.120000 0
0.140000 0.120000 0
0.160000 0.120000 0
0.180000 0.120000 0
0.200000 0.120000 0
0.220000 0.120000 0
0.240000 0.120000 0
0.260000 0.120000 0
0.280000 0.120000 0
0.300000 0.120000 0
0.320000 0.120000 0
0.340000 0.120000 0
0.360000 0.120000 0
0.380000 0.120000 0
0.400000 0.120000 0
0.420000 0.120000 0
0.440000 0.120000 0
0.460000 0.120000 0
0.480000 0.120000 0
0.500000 0.120000 0
0.520000 0.120000 0
0.540000 0.120000 0
0.560000 0.120000 0
0.580000 0.120000 0
0.600000 0.120000 0
0.620000 0.120000 0
0.640000 0.120000 0
0.660000 0.120000 0
0.680000 0.120000 0
0.700000 0.120000 0
0.720000 0.120000 0
0.740000 0.120000 0
0.760000 0.120000 0
0.780000 0.120000 0
0.800000 0.120000 0
0.820000 0.120000 0
0.840000 0.120000 0
0.860000 0.120000 0
0.880000 0.120000 0
0.900000 0.120000 0
0.920000 0.120000 0
0.940000 0.120000 0
0.960000 0.120000 0
0.980000 0.120000 0
1.000000 0.120000 0
0.000000 0.140000 0
0.020000 0.140000 0
0.040000 0.140000 0
0.060000 0.140000 0
0.080000 0.140000 0
0.100000 0.140000 0
0.120000 0.140000 0
0.140000 0.140000 0
0.160000 0.140000 0
0.180000 0.140000 0
0.200000 0.140000 0
0.220000 0.140000 0
0.240000 0.140000 0
0.260000 0.140000 0
0.280000 0.140000 0
0.300000 0.140000 0
0.320000 0.140000 0
0.340000 0.140000 0
0.360000 0.140000 0
0.380000 0.140000 0
0.400000 0.140000 0
0.420000 0.140000 0
0.440000 0.140000 0
0.460000 0.140000 0
0.480000 0.140000 0
0.500000 0.140000 0
0.520000 0.140000 0
0.540000 0.140000 0
0.560000 0.140000 0
0.580000 0.140000 0
0.600000 0.140000 0
0.620000 0.140000 0
0.640000 0.140000 0
0.660000 0.140000 0
0.680000 0.140000 0
0.700000 0.140000 0
0.720000 0.140000 0
0.740000 0.140000 0
0.760000 0.140000 0
0.780000 0.140000 0
0.800000 0.140000 0
0.820000 0.140000 0
0.840000 0.140000 0
0.860000 0.140000 0
0.880000 0.140000 0
0.900000 0.140000 0
0.920000 0.140000 0
0.940000 0.140000 0
0.960000 0.140000 0
0.980000 0.140000 0
1.000000 0.140000 0
0.000000 0.160000 0
0.020000 0.160000 0
0.040000 0.160000 0
0.060000 0.160000 0
0.080000 0.160000 0
0.100000 0.160000 0
0.120000 0.160000 0
0.140000 0.160000 0
0.160000 0.160000 0
0.180000 0.160000 0
0.200000 0.160000 0
0.220000 0.160000 0
0.240000 0.160000 0
0.260000 0.160000 0
0.280000 0.160000 0
0.300000 0.160000 0
0.320000 0.160000 0
0.340000 0.160000 0
0.360000 0.160000 0
0.380000 0.160000 0
0.400000 0.160000 0
0.420000 0.160000 0
0.440000 0.160000 0
0.460000 0.160000 0
0.480000 0.160000 0
0.500000 0.160000 0
0.520000 0.160000 0
0.540000 0.160000 0
0.560000 0.160000 0
0.580000 0.160000 0
0.600000 0.160000 0
0.620000 0.160000 0
0.640000 0.160000 0
0.660000 0.160000 0
0.680000 0.160000 0
0.700000 0.160000 0
0.720000 0.160000 0
0.740000 0.160000 0
0.760000 0.160000 0
0.780000 0.160000 0
0.800000 0.160000 0
0.820000 0.160000 0
0.840000 0.160000 0
0.860000 0.160000 0
0.880000 0.160000 0
0.900000 0.160000 0
0.920000 0.160000 0
0.940000 0.160000 0
0.960000 0.160000 0
0.980000 0.160000 0
1.000000 0.160000 0
0.000000 0.180000 0
0.020000 0.180000 0
0.040000 0.180000 0
0.060000 0.180000 0
0.080000 0.180000 0
0.100000 0.180000 0
0.120000 0.180000 0
0.140000 0.180000 0
0.160000 0.180000 0
0.180000 0.180000 0
0.200000 0.180000 0
0.220000 0.180000 0
0.240000 0.180000 0
0.260000 0.180000 0
0.280000 0.180000 0
0.300000 0.180000 0
0.320000 0.180000 0
0.340000 0.180000 0
0.360000 0.180000 0
0.380000 0.180000 0
0.400000 0.180000 0
0.420000 0.180000 0
0.440000 0.180000 0
0.460000 0.180000 0
0.480000 0.180000 0
0.500000 0.180000 0
0.520000 0.180000 0
0.540000 0.180000 0
0.560000 0.180000 0
0.580000 0.180000 0
0.600000 0.180000 0
0.620000 0.180000 0
[...]
POINT_DATA 2601 

VECTORS velocity float
0.000000 0.000000 0
-0.000001 0.000000 0
-0.000001 0.000000 0
-0.000000 0.000000 0
0.000000 0.000000 0
0.000000 0.000000 0
0.000000 0.000000 0
0.000000 0.000000 0
0.000000 0.000000 0
-0.000000 0.000000 0
-0.000000 0.000000 0
-0.000000 0.000000 0
-0.000000 0.000000 0
-0.000000 0.000000 0
-0.000000 0.000000 0
-0.000000 0.000000 0
-0.000000 0.000000 0
0.000000 0.000000 0
0.000000 0.000000 0
0.000000 0.000000 0
-0.000000 0.000000 0
0.000000 0.000000 0
0.000000 0.000000 0
0.000000 0.000000 0
0.000000 0.000000 0
0.000000 0.000000 0
0.000000 0.000000 0
0.000000 0.000000 0
0.000000 0.000000 0
-0.000000 0.000000 0
-0.000000 0.000000 0
-0.000000 0.000000 0
-0.000000 0.000000 0
-0.000000 0.000000 0
-0.000000 0.000000 0
-0.000000 0.000000 0
-0.000000 0.000000 0
-0.000000 0.000000 0
0.000000 0.000000 0
0.000000 0.000000 0
0.000000 0.000000 0
0.000000 0.000000 0
0.000000 0.000000 0
0.000000 0.000000 0
0.000000 0.000000 0
0.000000 0.000000 0
0.000000 0.000000 0
-0.000000 0.000000 0
-0.000000 0.000000 0
-0.000000 0.000000 0
0.000000 0.000000 0
0.000000 -0.000001 0
-0.000007 0.000010 0
-0.000357 0.000247 0
-0.001134 0.000512 0
-0.002302 0.000733 0
-0.003767 0.000882 0
-0.005413 0.000953 0
-0.007114 0.000948 0
-0.008751 0.000875 0
-0.010221 0.000747 0
-0.011439 0.000578 0
-0.012348 0.000383 0
-0.012911 0.000176 0
-0.013117 -0.000030 0
-0.012970 -0.000227 0
-0.012491 -0.000406 0
-0.011711 -0.000562 0
-0.010669 -0.000692 0
-0.009411 -0.000794 0
-0.007984 -0.000867 0
-0.006438 -0.000912 0
-0.004818 -0.000931 0
-0.003172 -0.000925 0
-0.001541 -0.000896 0
0.000038 -0.000849 0
0.001532 -0.000785 0
0.002912 -0.000709 0
0.004158 -0.000624 0
0.005253 -0.000533 0
0.006188 -0.000438 0
0.006955 -0.000342 0
0.007554 -0.000247 0
0.007985 -0.000154 0
0.008253 -0.000066 0
0.008366 0.000017 0
0.008333 0.000095 0
0.008162 0.000167 0
0.007865 0.000232 0
0.007452 0.000292 0
0.006934 0.000346 0
0.006323 0.000393 0
0.005631 0.000434 0
0.004872 0.000466 0
0.004064 0.000488 0
0.003229 0.000494 0
0.002399 0.000479 0
0.001613 0.000434 0
0.000923 0.000352 0
0.000390 0.000226 0
0.000074 0.000074 0
0.000000 0.000000 0
0.000000 -0.000001 0
-0.000230 0.000356 0
-0.001098 0.001128 0
-0.002647 0.001946 0
-0.004812 0.002634 0
-0.007451 0.003112 0
-0.010381 0.003347 0
-0.013405 0.003338 0
-0.016330 0.003106 0
-0.018982 0.002688 0
-0.021223 0.002127 0
-0.022946 0.001472 0
-0.024089 0.000769 0
-0.024619 0.000059 0
-0.024541 -0.000626 0
-0.023880 -0.001260 0
-0.022682 -0.001822 0
-0.021010 -0.002300 0
-0.018935 -0.002685 0
-0.016536 -0.002973 0
-0.013895 -0.003166 0
-0.011093 -0.003265 0
-0.008209 -0.003277 0
-0.005318 -0.003210 0
-0.002486 -0.003072 0
0.000224 -0.002874 0
0.002762 -0.002626 0
0.005084 -0.002341 0
0.007157 -0.002030 0
0.008958 -0.001702 0
0.010472 -0.001366 0
0.011691 -0.001030 0
0.012616 -0.000700 0
0.013252 -0.000382 0
0.013608 -0.000079 0
0.013697 0.000204 0
0.013537 0.000468 0
0.013144 0.000710 0
0.012537 0.000931 0
0.011737 0.001129 0
0.010765 0.001303 0
0.009644 0.001451 0
0.008400 0.001567 0
0.007066 0.001643 0
0.005681 0.001665 0
0.004296 0.001616 0
0.002976 0.001476 0
0.001798 0.001223 0
0.000852 0.000849 0
0.000228 0.000390 0
0.000000 -0.000000 0
0.000000 -0.000000 0
-0.000477 0.001108 0
-0.001881 0.002666 0
-0.004167 0.004228 0
-0.007217 0.005536 0
-0.010853 0.006450 0
-0.014852 0.006907 0
-0.018971 0.006896 0
-0.022972 0.006453 0
-0.026638 0.005640 0
-0.029789 0.004542 0
-0.032288 0.003249 0
-0.034045 0.001849 0
-0.035015 0.000422 0
-0.035189 -0.000966 0
-0.034595 -0.002265 0
-0.033281 -0.003432 0
-0.031321 -0.004439 0
-0.028798 -0.005267 0
-0.025810 -0.005907 0
-0.022457 -0.006355 0
-0.018844 -0.006616 0
-0.015073 -0.006700 0
-0.011241 -0.006619 0
-0.007441 -0.006391 0
-0.003755 -0.006034 0
-0.000255 -0.005569 0
0.002995 -0.005019 0
0.005945 -0.004407 0
0.008556 -0.003752 0
0.010802 -0.003075 0
0.012668 -0.002391 0
0.014148 -0.001715 0
0.015244 -0.001057 0
0.015964 -0.000428 0
0.016324 0.000166 0
0.016341 0.000720 0
0.016039 0.001232 0
0.015441 0.001698 0
0.014576 0.002118 0
0.013470 0.002487 0
0.012157 0.002799 0
0.010670 0.003044 0
0.009052 0.003207 0
0.007355 0.003264 0
0.005639 0.003184 0
0.003982 0.002933 0
0.002476 0.002476 0
0.001228 0.001796 0
0.000356 0.000926 0
0.000000 0.000000 0
0.000000 -0.000000 0
-0.000690 0.002238 0
-0.002583 0.004819 0
-0.005537 0.007282 0
-0.009378 0.009320 0
-0.013890 0.010746 0
-0.018819 0.011464 0
-0.023893 0.011458 0
-0.028844 0.010773 0
-0.033426 0.009505 0
-0.037434 0.007777 0
-0.040706 0.005728 0
-0.043132 0.003496 0
-0.044651 0.001203 0
-0.045246 -0.001046 0
-0.044934 -0.003168 0
-0.043764 -0.005096 0
-0.041808 -0.006783 0
-0.039154 -0.008195 0
-0.035906 -0.009314 0
-0.032173 -0.010131 0
-0.028073 -0.010650 0
-0.023720 -0.010880 0
-0.019231 -0.010842 0
-0.014712 -0.010559 0
-0.010265 -0.010060 0
-0.005981 -0.009377 0
-0.001936 -0.008542 0
0.001800 -0.007590 0
0.005173 -0.006559 0
0.008143 -0.005478 0
0.010683 -0.004376 0
0.012778 -0.003275 0
0.014424 -0.002198 0
0.015626 -0.001159 0
0.016396 -0.000172 0
0.016751 0.000753 0
0.016716 0.001609 0
0.016317 0.002393 0
0.015587 0.003100 0
0.014558 0.003722 0
0.013267 0.004252 0
0.011754 0.004671 0
0.010069 0.004958 0
0.008266 0.005078 0
0.006414 0.004989 0
0.004594 0.004639 0
0.002907 0.003978 0
0.001472 0.002969 0
0.000439 0.001618 0
0.000000 0.000000 0
0.000000 0.000000 0
-0.000861 0.003692 0
-0.003172 0.007514 0
-0.006710 0.011022 0
-0.011251 0.013888 0
-0.016540 0.015890 0
-0.022299 0.016909 0
-0.028233 0.016921 0
-0.034056 0.015986 0
-0.039502 0.014230 0
-0.044346 0.011821 0
-0.048411 0.008947 0
-0.051571 0.005795 0
-0.053750 0.002536 0
-0.054917 -0.000684 0
-0.055082 -0.003746 0
-0.054284 -0.006558 0
-0.052589 -0.009049 0
-0.050081 -0.011169 0
-0.046861 -0.012888 0
-0.043042 -0.014188 0
-0.038741 -0.015069 0
-0.034083 -0.015542 0
-0.029189 -0.015627 0
-0.024179 -0.015356 0
-0.019168 -0.014766 0
-0.014259 -0.013898 0
-0.009547 -0.012799 0
-0.005113 -0.011516 0
-0.001026 -0.010096 0
0.002658 -0.008585 0
0.005899 -0.007026 0
0.008667 -0.005456 0
0.010951 -0.003906 0
0.012746 -0.002400 0
0.014060 -0.000959 0
0.014906 0.000401 0
0.015306 0.001666 0
0.015286 0.002827 0
0.014880 0.003877 0
0.014122 0.004807 0
0.013053 0.005602 0
0.011715 0.006242 0
0.010158 0.006695 0
0.008440 0.006919 0
0.006629 0.006856 0
0.004809 0.006440 0
0.003084 0.005598 0
0.001583 0.004264 0
0.000478 0.002398 0
0.000000 0.000000 0
0.000000 0.000000 0
-0.000994 0.005411 0
-0.003649 0.010668 0
-0.007685 0.015360 0
-0.012835 0.019149 0
-0.018813 0.021794 0
-0.025319 0.023158 0
-0.032041 0.023215 0
-0.038679 0.022042 0
-0.044956 0.019795 0
-0.050635 0.016687 0
-0.055524 0.012954 0
-0.059485 0.008835 0
-0.062428 0.004549 0
-0.064309 0.000286 0
-0.065124 -0.003801 0
-0.064901 -0.007589 0
-0.063694 -0.010986 0
-0.061579 -0.013923 0
-0.058648 -0.016353 0
-0.055004 -0.018251 0
-0.050764 -0.019609 0
-0.046050 -0.020433 0
-0.040985 -0.020746 0
-0.035697 -0.020580 0
-0.030305 -0.019980 0
-0.024927 -0.018997 0
-0.019667 -0.017687 0
-0.014623 -0.016112 0
-0.009877 -0.014330 0
-0.005496 -0.012403 0
-0.001539 -0.010385 0
0.001953 -0.008327 0
0.004953 -0.006277 0
0.007447 -0.004269 0
0.009430 -0.002332 0
0.010912 -0.000493 0
0.011908 0.001230 0
0.012439 0.002819 0
0.012537 0.004264 0
0.012236 0.005549 0
0.011576 0.006659 0
0.010601 0.007566 0
0.009357 0.008233 0
0.007903 0.008607 0
0.006303 0.008619 0
0.004640 0.008184 0
0.003017 0.007204 0
0.001569 0.005575 0
0.000480 0.003201 0
0.000000 0.000000 0
0.000000 0.000000 0
-0.001097 0.007341 0
-0.004028 0.014204 0
-0.008479 0.020207 0
-0.014150 0.025016 0
-0.020732 0.028374 0
-0.027907 0.030137 0
-0.035352 0.030282 0
-0.042759 0.028902 0
-0.049840 0.026186 0
-0.056352 0.022389 0
-0.062095 0.017798 0
-0.066918 0.012699 0
-0.070719 0.007360 0
-0.073439 0.002012 0
-0.075058 -0.003154 0
-0.075592 -0.007987 0
-0.075078 -0.012370 0
-0.073576 -0.016216 0
-0.071166 -0.019463 0
-0.067938 -0.022071 0
-0.063998 -0.024024 0
-0.059460 -0.025321 0
-0.054447 -0.025980 0
-0.049081 -0.026037 0
-0.043489 -0.025536 0
-0.037793 -0.024536 0
-0.032110 -0.023103 0
-0.026546 -0.021307 0
-0.021199 -0.019222 0
-0.016152 -0.016922 0
-0.011477 -0.014475 0
-0.007228 -0.011949 0
-0.003447 -0.009400 0
-0.000166 -0.006877 0
0.002603 -0.004424 0
0.004856 -0.002077 0
0.006599 0.000139 0
0.007846 0.002198 0
0.008621 0.004080 0
0.008955 0.005767 0
0.008885 0.007238 0
0.008452 0.008461 0
0.007700 0.009393 0
0.006681 0.009973 0
0.005457 0.010119 0
0.004103 0.009726 0
0.002720 0.008668 0
0.001440 0.006801 0
0.000448 0.003967 0
0.000000 0.000000 0
0.000000 0.000000 0
-0.001174 0.009438 0
-0.004322 0.018049 0
-0.009111 0.025481 0
-0.015218 0.031402 0
-0.022321 0.035551 0
-0.030088 0.037778 0
-0.038192 0.038067 0
-0.046316 0.036529 0
-0.054173 0.033388 0
-0.061512 0.028941 0
-0.068127 0.023519 0
-0.073860 0.017459 0
-0.078595 0.011070 0
-0.082260 0.004625 0
-0.084818 -0.001648 0
-0.086266 -0.007570 0
-0.086624 -0.013001 0
-0.085933 -0.017835 0
-0.084253 -0.021992 0
-0.081660 -0.025419 0
-0.078242 -0.028086 0
-0.074101 -0.029984 0
-0.069349 -0.031125 0
-0.064104 -0.031537 0
-0.058492 -0.031268 0
-0.052635 -0.030376 0
-0.046657 -0.028935 0
-0.040676 -0.027023 0
-0.034799 -0.024724 0
-0.029126 -0.022125 0
-0.023742 -0.019309 0
-0.018719 -0.016357 0
-0.014116 -0.013338 0
-0.009974 -0.010319 0
-0.006324 -0.007354 0
-0.003183 -0.004489 0
-0.000557 -0.001761 0
0.001560 0.000798 0
0.003178 0.003155 0
0.004319 0.005285 0
0.005014 0.007162 0
0.005297 0.008752 0
0.005209 0.010004 0
0.004795 0.010850 0
0.004108 0.011197 0
0.003215 0.010921 0
0.002205 0.009867 0
0.001204 0.007847 0
0.000386 0.004641 0
0.000000 0.000000 0
0.000000 -0.000000 0
-0.001230 0.011663 0
-0.004543 0.022140 0
-0.009598 0.031104 0
-0.016062 0.038226 0
-0.023603 0.043244 0
-0.031885 0.046009 0
-0.040577 0.046510 0
-0.049363 0.044883 0
-0.057955 0.041381 0
-0.066102 0.036343 0
-0.073593 0.030146 0
-0.080265 0.023167 0
-0.085990 0.015761 0
-0.090683 0.008235 0
-0.094289 0.000851 0
-0.096782 -0.006182 0
-0.098164 -0.012704 0
-0.098455 -0.018587 0
-0.097694 -0.023736 0
-0.095933 -0.028083 0
-0.093242 -0.031583 0
-0.089705 -0.034214 0
-0.085419 -0.035977 0
-0.080491 -0.036894 0
-0.075038 -0.037005 0
-0.069184 -0.036370 0
-0.063053 -0.035062 0
-0.056770 -0.033165 0
-0.050452 -0.030772 0
-0.044211 -0.027979 0
-0.038149 -0.024882 0
-0.032353 -0.021575 0
-0.026898 -0.018144 0
-0.021845 -0.014668 0
-0.017239 -0.011215 0
-0.013113 -0.007845 0
-0.009485 -0.004605 0
-0.006365 -0.001537 0
-0.003751 0.001321 0
-0.001640 0.003932 0
-0.000012 0.006260 0
0.001159 0.008266 0
0.001905 0.009895 0
0.002261 0.011075 0
0.002269 0.011699 0
0.001984 0.011628 0
0.001480 0.010679 0
0.000865 0.008620 0
0.000296 0.005171 0
0.000000 0.000000 0
0.000000 -0.000000 0
-0.001268 0.013981 0
-0.004701 0.026418 0
-0.009957 0.037000 0
-0.016701 0.045407 0
-0.024599 0.051374 0
-0.033314 0.054753 0
-0.042520 0.055545 0
-0.051903 0.053908 0
-0.061179 0.050127 0
-0.070098 0.044579 0
-0.078449 0.037682 0
-0.086064 0.029856 0
-0.092810 0.021489 0
-0.098584 0.012924 0
-0.103317 0.004451 0
-0.106958 -0.003695 0
-0.109490 -0.011328 0
-0.110909 -0.018305 0
-0.111228 -0.024514 0
-0.110477 -0.029870 0
-0.108702 -0.034314 0
-0.105963 -0.037808 0
-0.102338 -0.040339 0
-0.097919 -0.041918 0
-0.092812 -0.042574 0
-0.087131 -0.042361 0
-0.081000 -0.041349 0
-0.074546 -0.039624 0
-0.067893 -0.037282 0
-0.061165 -0.034428 0
-0.054477 -0.031168 0
-0.047931 -0.027607 0
-0.041621 -0.023847 0
-0.035625 -0.019979 0
-0.030007 -0.016086 0
-0.024818 -0.012243 0
-0.020092 -0.008508 0
-0.015854 -0.004936 0
-0.012117 -0.001570 0
-0.008887 0.001546 0
-0.006165 0.004363 0
-0.003942 0.006835 0
-0.002198 0.008902 0
-0.000911 0.010486 0
-0.000051 0.011474 0
0.000418 0.011709 0
0.000549 0.010985 0
0.000427 0.009031 0
0.000178 0.005507 0
0.000000 -0.000000 0
0.000000 -0.000000 0
-0.001291 0.016364 0
-0.004804 0.030829 0
-0.010201 0.043103 0
-0.017153 0.052868 0
-0.025327 0.059858 0
-0.034395 0.063930 0
-0.044034 0.065099 0
-0.053940 0.063541 0
-0.063833 0.059575 0
-0.073471 0.053613 0
-0.082645 0.046112 0
-0.091184 0.037528 0
-0.098949 0.028281 0
-0.105829 0.018742 0
-0.111735 0.009225 0
-0.116600 -0.000009 0
-0.120375 -0.008753 0
-0.123035 -0.016849 0
-0.124570 -0.024168 0
-0.124981 -0.030609 0
-0.124289 -0.036097 0
-0.122528 -0.040577 0
-0.119751 -0.044021 0
-0.116031 -0.046420 0
-0.111454 -0.047794 0
-0.106124 -0.048182 0
-0.100158 -0.047647 0
-0.093680 -0.046272 0
-0.086819 -0.044152 0
-0.079706 -0.041396 0
-0.072466 -0.038117 0
-0.065220 -0.034431 0
-0.058076 -0.030450 0
-0.051131 -0.026282 0
-0.044470 -0.022023 0
-0.038162 -0.017760 0
-0.032261 -0.013568 0
-0.026809 -0.009512 0
-0.021838 -0.005646 0
-0.017366 -0.002020 0
-0.013410 0.001315 0
-0.009980 0.004299 0
-0.007081 0.006864 0
-0.004706 0.008928 0
-0.002843 0.010371 0
-0.001479 0.011028 0
-0.000585 0.010670 0
-0.000112 0.008991 0
0.000032 0.005598 0
0.000000 -0.000000 0
0.000000 -0.000000 0
-0.001301 0.018785 0
-0.004858 0.035328 0
-0.010343 0.049349 0
-0.017433 0.060533 0
-0.025807 0.068616 0
-0.035144 0.073460 0
-0.045132 0.075090 0
-0.055477 0.073707 0
-0.065911 0.069659 0
-0.076198 0.063391 0
-0.086135 0.055395 0
-0.095552 0.046160 0
-0.104308 0.036133 0
-0.112282 0.025710 0
-0.119375 0.015221 0
-0.125498 0.004945 0
-0.130579 -0.004893 0
-0.134565 -0.014110 0
-0.137419 -0.022568 0
-0.139118 -0.030151 0
-0.139653 -0.036767 0
-0.139030 -0.042346 0
-0.137275 -0.046837 0
-0.134434 -0.050215 0
-0.130573 -0.052480 0
-0.125777 -0.053657 0
-0.120150 -0.053794 0
-0.113810 -0.052963 0
-0.106885 -0.051257 0
-0.099509 -0.048781 0
-0.091818 -0.045654 0
-0.083944 -0.041998 0
-0.076014 -0.037935 0
-0.068142 -0.033584 0
-0.060432 -0.029056 0
-0.052974 -0.024452 0
-0.045845 -0.019861 0
-0.039106 -0.015359 0
-0.032808 -0.011013 0
-0.026991 -0.006883 0
-0.021685 -0.003023 0
-0.016918 0.000506 0
-0.012718 0.003628 0
-0.009106 0.006248 0
-0.006096 0.008247 0
-0.003700 0.009451 0
-0.001921 0.009618 0
-0.000750 0.008413 0
-0.000142 0.005395 0
0.000000 -0.000000 0
0.000000 -0.000000 0
-0.001300 0.021222 0
-0.004869 0.039871 0
-0.010392 0.055679 0
-0.017559 0.068332 0
-0.026058 0.077569 0
-0.035582 0.083255 0
-0.045832 0.085432 0
-0.056527 0.084320 0
-0.067413 0.080296 0
-0.078263 0.073837 0
-0.088884 0.065467 0
-0.099109 0.055700 0
-0.108796 0.045011 0
-0.117823 0.033809 0
-0.126077 0.022441 0
-0.133457 0.011195 0
-0.139870 0.000313 0
-0.145232 -0.010009 0
-0.149477 -0.019614 0
-0.152558 -0.028375 0
-0.154437 -0.036185 0
-0.155089 -0.042955 0
-0.154511 -0.048617 0
-0.152719 -0.053123 0
-0.149752 -0.056451 0
-0.145672 -0.058605 0
-0.140565 -0.059614 0
-0.134536 -0.059537 0
-0.127708 -0.058453 0
-0.120213 -0.056462 0
-0.112193 -0.053681 0
-0.103791 -0.050235 0
-0.095147 -0.046253 0
-0.086395 -0.041864 0
-0.077657 -0.037191 0
-0.069047 -0.032347 0
-0.060661 -0.027437 0
-0.052585 -0.022548 0
-0.044892 -0.017761 0
-0.037643 -0.013143 0
-0.030891 -0.008758 0
-0.024682 -0.004669 0
-0.019062 -0.000949 0
-0.014082 0.002306 0
-0.009790 0.004965 0
-0.006232 0.006853 0
-0.003452 0.007719 0
-0.001485 0.007212 0
-0.000345 0.004848 0
0.000000 -0.000000 0
0.000000 -0.000000 0
-0.001289 0.023654 0
-0.004843 0.044421 0
-0.010361 0.062040 0
-0.017546 0.076199 0
-0.026100 0.086639 0
-0.035730 0.093233 0
-0.046154 0.096035 0
-0.057107 0.095288 0
-0.068347 0.091395 0
-0.079663 0.084862 0
-0.090871 0.076241 0
-0.101811 0.066072 0
-0.112345 0.054847 0
-0.122349 0.042990 0
-0.131706 0.030856 0
-0.140304 0.018738 0
-0.148032 0.006882 0
-0.154782 -0.004503 0
-0.160456 -0.015241 0
-0.164980 -0.025192 0
-0.168287 -0.034236 0
-0.170325 -0.042271 0
-0.171056 -0.049207 0
-0.170466 -0.054975 0
-0.168560 -0.059527 0
-0.165375 -0.062843 0
-0.160971 -0.064929 0
-0.155435 -0.065821 0
-0.148876 -0.065580 0
-0.141422 -0.064296 0
-0.133216 -0.062076 0
-0.124408 -0.059044 0
-0.115149 -0.055331 0
-0.105589 -0.051073 0
-0.095873 -0.046404 0
-0.086132 -0.041448 0
-0.076490 -0.036322 0
-0.067053 -0.031128 0
-0.057920 -0.025956 0
-0.049176 -0.020884 0
-0.040899 -0.015984 0
-0.033160 -0.011322 0
-0.026029 -0.006972 0
-0.019580 -0.003024 0
-0.013893 0.000397 0
-0.009058 0.003114 0
-0.005168 0.004870 0
-0.002314 0.005305 0
-0.000575 0.003910 0
0.000000 -0.000000 0
0.000000 0.000000 0
-0.001270 0.026065 0
-0.004786 0.048944 0
-0.010260 0.068382 0
-0.017411 0.084071 0
-0.025954 0.095753 0
-0.035615 0.103309 0
-0.046126 0.106808 0
-0.057240 0.106514 0
-0.068733 0.102853 0
-0.080408 0.096361 0
-0.092091 0.087614 0
-0.103636 0.077175 0
-0.114908 0.065549 0
-0.125787 0.053170 0
-0.136155 0.040396 0
-0.145892 0.027522 0
-0.154877 0.014791 0
-0.162985 0.002415 0
-0.170091 -0.009416 0
-0.176083 -0.020544 0
-0.180869 -0.030840 0
-0.184369 -0.040186 0
-0.186515 -0.048476 0
-0.187254 -0.055619 0
-0.186563 -0.061541 0
-0.184440 -0.066194 0
-0.180918 -0.069555 0
-0.176058 -0.071632 0
-0.169952 -0.072465 0
-0.162714 -0.072122 0
-0.154483 -0.070696 0
-0.145411 -0.068302 0
-0.135659 -0.065071 0
-0.125392 -0.061140 0
-0.114770 -0.056648 0
-0.103949 -0.051731 0
-0.093075 -0.046516 0
-0.082282 -0.041118 0
-0.071691 -0.035638 0
-0.061416 -0.030164 0
-0.051561 -0.024774 0
-0.042224 -0.019538 0
-0.033505 -0.014529 0
-0.025507 -0.009830 0
-0.018344 -0.005556 0
-0.012143 -0.001872 0
-0.007052 0.000975 0
-0.003228 0.002618 0
-0.000830 0.002535 0
0.000000 -0.000000 0
0.000000 0.000000 0
-0.001245 0.028440 0
-0.004702 0.053411 0
-0.010100 0.074665 0
-0.017169 0.091893 0
-0.025644 0.104843 0
-0.035262 0.113404 0
-0.045777 0.117661 0
-0.056958 0.117896 0
-0.068600 0.114562 0
-0.080520 0.108220 0
-0.092560 0.099469 0
-0.104583 0.088889 0
-0.116466 0.076999 0
-0.128093 0.064237 0
-0.139350 0.050961 0
-0.150116 0.037461 0
-0.160263 0.023975 0
-0.169655 0.010711 0
-0.178148 -0.002144 0
-0.185595 -0.014414 0
-0.191874 -0.025950 0
-0.196878 -0.036626 0
-0.200507 -0.046322 0
-0.202679 -0.054927 0
-0.203328 -0.062342 0
-0.202421 -0.068488 0
-0.199951 -0.073311 0
-0.195951 -0.076787 0
-0.190484 -0.078925 0
-0.183647 -0.079764 0
-0.175568 -0.079379 0
-0.166395 -0.077868 0
-0.156294 -0.075351 0
-0.145441 -0.071963 0
-0.134013 -0.067846 0
-0.122188 -0.063143 0
-0.110135 -0.057990 0
-0.098015 -0.052512 0
-0.085977 -0.046821 0
-0.074162 -0.041015 0
-0.062704 -0.035176 0
-0.051729 -0.029378 0
-0.041370 -0.023689 0
-0.031762 -0.018186 0
-0.023057 -0.012967 0
-0.015427 -0.008178 0
-0.009070 -0.004045 0
-0.004214 -0.000916 0
-0.001108 0.000682 0
0.000000 -0.000000 0
0.000000 0.000000 0
-0.001215 0.030767 0
-0.004597 0.057799 0
-0.009891 0.080850 0
-0.016840 0.099614 0
-0.025191 0.113845 0
-0.034702 0.123442 0
-0.045141 0.128505 0
-0.056298 0.129337 0
-0.067984 0.126414 0
-0.080033 0.120320 0
-0.092303 0.111677 0
-0.104670 0.101081 0
-0.117022 0.089059 0
-0.129252 0.076054 0
-0.141251 0.062419 0
-0.152904 0.048435 0
-0.164081 0.034330 0
-0.174642 0.020301 0
-0.184429 0.006525 0
-0.193279 -0.006818 0
-0.201026 -0.019558 0
-0.207536 -0.031553 0
-0.212684 -0.042675 0
-0.216352 -0.052798 0
-0.218442 -0.061799 0
-0.218879 -0.069571 0
-0.217618 -0.076025 0
-0.214651 -0.081100 0
-0.210011 -0.084769 0
-0.203768 -0.087037 0
-0.196030 -0.087948 0
-0.186937 -0.087576 0
-0.176652 -0.086025 0
-0.165358 -0.083420 0
-0.153249 -0.079900 0
-0.140521 -0.075609 0
-0.127368 -0.070689 0
-0.113978 -0.065276 0
-0.100530 -0.059490 0
-0.087194 -0.053438 0
-0.074134 -0.047207 0
-0.061511 -0.040872 0
-0.049488 -0.034496 0
-0.038238 -0.028143 0
-0.027951 -0.021891 0
-0.018847 -0.015859 0
-0.011181 -0.010238 0
-0.005253 -0.005344 0
-0.001403 -0.001680 0
0.000000 -0.000000 0
0.000000 0.000000 0
-0.001181 0.033037 0
-0.004477 0.062087 0
-0.009643 0.086906 0
-0.016438 0.107193 0
-0.024621 0.122705 0
-0.033965 0.133355 0
-0.044256 0.139257 0
-0.055301 0.140739 0
-0.066929 0.138297 0
-0.078993 0.132539 0
-0.091365 0.124106 0
-0.103935 0.113607 0
-0.116604 0.101580 0
-0.129277 0.088466 0
-0.141854 0.074613 0
-0.154227 0.060291 0
-0.166272 0.045713 0
-0.177848 0.031059 0
-0.188795 0.016494 0
-0.198940 0.002183 0
-0.208093 -0.011693 0
-0.216071 -0.024968 0