# vtk DataFile Version 2.0
generated by CFD-lab course output (written by Tobias Neckel) 
ASCII

DATASET STRUCTURED_GRID
DIMENSIONS  51 51 1 
POINTS 2601 float

0.000000 0.000000 0
0.020000 0.000000 0
0.040000 0.000000 0
0.060000 0.000000 0
0.080000 0.000000 0
0.100000 0.000000 0
0.120000 0.000000 0
0.140000 0.000000 0
0.160000 0.000000 0
0.180000 0.000000 0
0.200000 0.000000 0
0.220000 0.000000 0
0.240000 0.000000 0
0.260000 0.000000 0
0.280000 0.000000 0
0.300000 0.000000 0
0.320000 0.000000 0
0.340000 0.000000 0
0.360000 0.000000 0
0.380000 0.000000 0
0.400000 0.000000 0
0.420000 0.000000 0
0.440000 0.000000 0
0.460000 0.000000 0
0.480000 0.000000 0
0.500000 0.000000 0
0.520000 0.000000 0
0.540000 0.000000 0
0.560000 0.000000 0
0.580000 0.000000 0
0.600000 0.000000 0
0.620000 0.000000 0
0.640000 0.000000 0
0.660000 0.000000 0
0.680000 0.000000 0
0.700000 0.000000 0
0.720000 0.000000 0
0.740000 0.000000 0
0.760000 0.000000 0
0.780000 0.000000 0
0.800000 0.000000 0
0.820000 0.000000 0
0.840000 0.000000 0
0.860000 0.000000 0
0.880000 0.000000 0
0.900000 0.000000 0
0.920000 0.000000 0
0.940000 0.000000 0
0.960000 0.000000 0
0.980000 0.000000 0
1.000000 0.000000 0
0.000000 0.020000 0
0.020000 0.020000 0
0.040000 0.020000 0
0.060000 0.020000 0
0.080000 0.020000 0
0.100000 0.020000 0
0.120000 0.020000 0
0.140000 0.020000 0
0.160000 0.020000 0
0.180000 0.020000 0
0.200000 0.020000 0
0.220000 0.020000 0
0.240000 0.020000 0
0.260000 0.020000 0
0.280000 0.020000 0
0.300000 0.020000 0
0.320000 0.020000 0
0.340000 0.020000 0
0.360000 0.020000 0
0.380000 0.020000 0
0.400000 0.020000 0
0.420000 0.020000 0
0.440000 0.020000 0
0.460000 0.020000 0
0.480000 0.020000 0
0.500000 0.020000 0
0.520000 0.020000 0
0.540000 0.020000 0
0.560000 0.020000 0
0.580000 0.020000 0
0.600000 0.020000 0
0.620000 0.020000 0
0.640000 0.020000 0
0.660000 0.020000 0
0.680000 0.020000 0
0.700000 0.020000 0
0.720000 0.020000 0
0.740000 0.020000 0
0.760000 0.020000 0
0.780000 0.020000 0
0.800000 0.020000 0
0.820000 0.020000 0
0.840000 0.020000 0
0.860000 0.020000 0
0.880000 0.020000 0
0.900000 0.020000 0
0.920000 0.020000 0
0.940000 0.020000 0
0.960000 0.020000 0
0.980000 0.020000 0
1.000000 0.020000 0
0.000000 0.040000 0
0.020000 0.040000 0
0.040000 0.040000 0
0.060000 0.040000 0
0.080000 0.040000 0
0.100000 0.040000 0
0.120000 0.040000 0
0.140000 0.040000 0
0.160000 0.040000 0
0.180000 0.040000 0
0.200000 0.040000 0
0.220000 0.040000 0
0.240000 0.040000 0
0.260000 0.040000 0
0.280000 0.040000 0
0.300000 0.040000 0
0.320000 0.040000 0
0.340000 0.040000 0
0.360000 0.040000 0
0.380000 0.040000 0
0.400000 0.040000 0
0.420000 0.040000 0
0.440000 0.040000 0
0.460000 0.040000 0
0.480000 0.040000 0
0.500000 0.040000 0
0.520000 0.040000 0
0.540000 0.040000 0
0.560000 0.040000 0
0.580000 0.040000 0
0.600000 0.040000 0
0.620000 0.040000 0
0.640000 0.040000 0
0.660000 0.040000 0
0.680000 0.040000 0
0.700000 0.040000 0
0.720000 0.040000 0
0.740000 0.040000 0
0.760000 0.040000 0
0.780000 0.040000 0
0.800000 0.040000 0
0.820000 0.040000 0
0.840000 0.040000 0
0.860000 0.040000 0
0.880000 0.040000 0
0.900000 0.040000 0
0.920000 0.040000 0
0.940000 0.040000 0
0.960000 0.040000 0
0.980000 0.040000 0
1.000000 0.040000 0
0.000000 0.060000 0
0.020000 0.060000 0
0.040000 0.060000 0
0.060000 0.060000 0
0.080000 0.060000 0
0.100000 0.060000 0
0.120000 0.060000 0
0.140000 0.060000 0
0.160000 0.060000 0
0.180000 0.060000 0
0.200000 0.060000 0
0.220000 0.060000 0
0.240000 0.060000 0
0.260000 0.060000 0
0.280000 0.060000 0
0.300000 0.060000 0
0.320000 0.060000 0
0.340000 0.060000 0
0.360000 0.060000 0
0.380000 0.060000 0
0.400000 0.060000 0
0.420000 0.060000 0
0.440000 0.060000 0
0.460000 0.060000 0
0.480000 0.060000 0
0.500000 0.060000 0
0.520000 0.060000 0
0.540000 0.060000 0
0.560000 0.060000 0
0.580000 0.060000 0
0.600000 0.060000 0
0.620000 0.060000 0
0.640000 0.060000 0
0.660000 0.060000 0
0.680000 0.060000 0
0.700000 0.060000 0
0.720000 0.060000 0
0.740000 0.060000 0
0.760000 0.060000 0
0.780000 0.060000 0
0.800000 0.060000 0
0.820000 0.060000 0
0.840000 0.060000 0
0.860000 0.060000 0
0.880000 0.060000 0
0.900000 0.060000 0
0.920000 0.060000 0
0.940000 0.060000 0
0.960000 0.060000 0
0.980000 0.060000 0
1.000000 0.060000 0
0.000000 0.080000 0
0.020000 0.080000 0
0.040000 0.080000 0
0.060000 0.080000 0
0.080000 0.080000 0
0.100000 0.080000 0
0.120000 0.080000 0
0.140000 0.080000 0
0.160000 0.080000 0
0.180000 0.080000 0
0.200000 0.080000 0
0.220000 0.080000 0
0.240000 0.080000 0
0.260000 0.080000 0
0.280000 0.080000 0
0.300000 0.080000 0
0.320000 0.080000 0
0.340000 0.080000 0
0.360000 0.080000 0
0.380000 0.080000 0
0.400000 0.080000 0
0.420000 0.080000 0
0.440000 0.080000 0
0.460000 0.080000 0
0.480000 0.080000 0
0.500000 0.080000 0
0.520000 0.080000 0
0.540000 0.080000 0
0.560000 0.080000 0
0.580000 0.080000 0
0.600000 0.080000 0
0.620000 0.080000 0
0.640000 0.080000 0
0.660000 0.080000 0
0.680000 0.080000 0
0.700000 0.080000 0
0.720000 0.080000 0
0.740000 0.080000 0
0.760000 0.080000 0
0.780000 0.080000 0
0.800000 0.080000 0
0.820000 0.080000 0
0.840000 0.080000 0
0.860000 0.080000 0
0.880000 0.080000 0
0.900000 0.080000 0
0.920000 0.080000 0
0.940000 0.080000 0
0.960000 0.080000 0
0.980000 0.080000 0
1.000000 0.080000 0
0.000000 0.100000 0
0.020000 0.100000 0
0.040000 0.100000 0
0.060000 0.100000 0
0.080000 0.100000 0
0.100000 0.100000 0
0.120000 0.100000 0
0.140000 0.100000 0
0.160000 0.100000 0
0.180000 0.100000 0
0.200000 0.100000 0
0.220000 0.100000 0
0.240000 0.100000 0
0.260000 0.100000 0
0.280000 0.100000 0
0.300000 0.100000 0
0.320000 0.100000 0
0.340000 0.100000 0
0.360000 0.100000 0
0.380000 0.100000 0
0.400000 0.100000 0
0.420000 0.100000 0
0.440000 0.100000 0
0.460000 0.100000 0
0.480000 0.100000 0
0.500000 0.100000 0
0.520000 0.100000 0
0.540000 0.100000 0
0.560000 0.100000 0
0.580000 0.100000 0
0.600000 0.100000 0
0.620000 0.100000 0
0.640000 0.100000 0
0.660000 0.100000 0
0.680000 0.100000 0
0.700000 0.100000 0
0.720000 0.100000 0
0.740000 0.100000 0
0.760000 0.100000 0
0.780000 0.100000 0
0.800000 0.100000 0
0.820000 0.100000 0
0.840000 0.100000 0
0.860000 0.100000 0
0.880000 0.100000 0
0.900000 0.100000 0
0.920000 0.100000 0
0.940000 0.100000 0
0.960000 0.100000 0
0.980000 0.100000 0
1.000000 0.100000 0
0.000000 0.120000 0
0.020000 0.120000 0
0.040000 0.120000 0
0.060000 0.120000 0
0.080000 0.120000 0
0.100000 0.120000 0
0.120000 0.120000 0
0.140000 0.120000 0
0.160000 0.120000 0
0.180000 0.120000 0
0.200000 0.120000 0
0.220000 0.120000 0
0.240000 0.120000 0
0.260000 0.120000 0
0.280000 0.120000 0
0.300000 0.120000 0
0.320000 0.120000 0
0.340000 0.120000 0
0.360000 0.120000 0
0.380000 0.120000 0
0.400000 0.120000 0
0.420000 0.120000 0
0.440000 0.120000 0
0.460000 0.120000 0
0.480000 0.120000 0
0.500000 0.120000 0
0.520000 0.120000 0
0.540000 0.120000 0
0.560000 0.120000 0
0.580000 0.120000 0
0.600000 0.120000 0
0.620000 0.120000 0
0.640000 0.120000 0
0.660000 0.120000 0
0.680000 0.120000 0
0.700000 0.120000 0
0.720000 0.120000 0
0.740000 0.120000 0
0.760000 0.120000 0
0.780000 0.120000 0
0.800000 0.120000 0
0.820000 0.120000 0
0.840000 0.120000 0
0.860000 0.120000 0
0.880000 0.120000 0
0.900000 0.120000 0
0.920000 0.120000 0
0.940000 0.120000 0
0.960000 0.120000 0
0.980000 0.120000 0
1.000000 0.120000 0
0.000000 0.140000 0
0.020000 0.140000 0
0.040000 0.140000 0
0.060000 0.140000 0
0.080000 0.140000 0
0.100000 0.140000 0
0.120000 0.140000 0
0.140000 0.140000 0
0.160000 0.140000 0
0.180000 0.140000 0
0.200000 0.140000 0
0.220000 0.140000 0
0.240000 0.140000 0
0.260000 0.140000 0
0.280000 0.140000 0
0.300000 0.140000 0
0.320000 0.140000 0
0.340000 0.140000 0
0.360000 0.140000 0
0.380000 0.140000 0
0.400000 0.140000 0
0.420000 0.140000 0
0.440000 0.140000 0
0.460000 0.140000 0
0.480000 0.140000 0
0.500000 0.140000 0
0.520000 0.140000 0
0.540000 0.140000 0
0.560000 0.140000 0
0.580000 0.140000 0
0.600000 0.140000 0
0.620000 0.140000 0
0.640000 0.140000 0
0.660000 0.140000 0
0.680000 0.140000 0
0.700000 0.140000 0
0.720000 0.140000 0
0.740000 0.140000 0
0.760000 0.140000 0
0.780000 0.140000 0
0.800000 0.140000 0
0.820000 0.140000 0
0.840000 0.140000 0
0.860000 0.140000 0
0.880000 0.140000 0
0.900000 0.140000 0
0.920000 0.140000 0
0.940000 0.140000 0
0.960000 0.140000 0
0.980000 0.140000 0
1.000000 0.140000 0
0.000000 0.160000 0
0.020000 0.160000 0
0.040000 0.160000 0
0.060000 0.160000 0
0.080000 0.160000 0
0.100000 0.160000 0
0.120000 0.160000 0
0.140000 0.160000 0
0.160000 0.160000 0
0.180000 0.160000 0
0.200000 0.160000 0
0.220000 0.160000 0
0.240000 0.160000 0
0.260000 0.160000 0
0.280000 0.160000 0
0.300000 0.160000 0
0.320000 0.160000 0
0.340000 0.160000 0
0.360000 0.160000 0
0.380000 0.160000 0
0.400000 0.160000 0
0.420000 0.160000 0
0.440000 0.160000 0
0.460000 0.160000 0
0.480000 0.160000 0
0.500000 0.160000 0
0.520000 0.160000 0
0.540000 0.160000 0
0.560000 0.160000 0
0.580000 0.160000 0
0.600000 0.160000 0
0.620000 0.160000 0
0.640000 0.160000 0
0.660000 0.160000 0
0.680000 0.160000 0
0.700000 0.160000 0
0.720000 0.160000 0
0.740000 0.160000 0
0.760000 0.160000 0
0.780000 0.160000 0
0.800000 0.160000 0
0.820000 0.160000 0
0.840000 0.160000 0
0.860000 0.160000 0
0.880000 0.160000 0
0.900000 0.160000 0
0.920000 0.160000 0
0.940000 0.160000 0
0.960000 0.160000 0
0.980000 0.160000 0
1.000000 0.160000 0
0.000000 0.180000 0
0.020000 0.180000 0
0.040000 0.180000 0
0.060000 0.180000 0
0.080000 0.180000 0
0.100000 0.180000 0
0.120000 0.180000 0
0.140000 0.180000 0
0.160000 0.180000 0
0.180000 0.180000 0
0.200000 0.180000 0
0.220000 0.180000 0
0.240000 0.180000 0
0.260000 0.180000 0
0.280000 0.180000 0
0.300000 0.180000 0
0.320000 0.180000 0
0.340000 0.180000 0
0.360000 0.180000 0
0.380000 0.180000 0
0.400000 0.180000 0
0.420000 0.180000 0
0.440000 0.180000 0
0.460000 0.180000 0
0.480000 0.180000 0
0.500000 0.180000 0
0.520000 0.180000 0
0.540000 0.180000 0
0.560000 0.180000 0
0.580000 0.180000 0
0.600000 0.180000 0
0.620000 0.180000 0
[...]
POINT_DATA 2601 

VECTORS velocity float
0.000000 0.000000 0
-0.000000 0.000000 0
-0.000000 0.000000 0
-0.000000 0.000000 0
-0.000000 0.000000 0
-0.000000 0.000000 0
-0.000000 0.000000 0
-0.000000 0.000000 0
-0.000000 0.000000 0
-0.000000 0.000000 0
-0.000000 0.000000 0
-0.000000 0.000000 0
-0.000000 0.000000 0
-0.000000 0.000000 0
-0.000000 0.000000 0
-0.000000 0.000000 0
-0.000000 0.000000 0
-0.000000 0.000000 0
-0.000000 0.000000 0
-0.000000 0.000000 0
-0.000000 0.000000 0
-0.000000 0.000000 0
-0.000000 0.000000 0
-0.000000 0.000000 0
-0.000000 0.000000 0
-0.000000 0.000000 0
-0.000000 0.000000 0
-0.000000 0.000000 0
-0.000000 0.000000 0
-0.000000 0.000000 0
-0.000000 0.000000 0
-0.000000 0.000000 0
-0.000000 0.000000 0
-0.000000 0.000000 0
-0.000000 0.000000 0
-0.000000 0.000000 0
-0.000000 0.000000 0
-0.000000 0.000000 0
-0.000000 0.000000 0
-0.000000 0.000000 0
-0.000000 0.000000 0
-0.000000 0.000000 0
-0.000000 0.000000 0
-0.000000 0.000000 0
-0.000000 0.000000 0
-0.000000 0.000000 0
-0.000000 0.000000 0
-0.000000 0.000000 0
-0.000000 0.000000 0
-0.000000 0.000000 0
0.000000 0.000000 0
0.000000 0.000000 0
-0.007132 0.002938 0
-0.014433 0.005042 0
-0.022015 0.006167 0
-0.030048 0.006409 0
-0.038579 0.006034 0
-0.047486 0.005348 0
-0.056543 0.004592 0
-0.065504 0.003898 0
-0.074175 0.003315 0
-0.082436 0.002839 0
-0.090222 0.002448 0
-0.097522 0.002120 0
-0.104318 0.001837 0
-0.110576 0.001587 0
-0.116355 0.001362 0
-0.121702 0.001156 0
-0.126636 0.000966 0
-0.131157 0.000788 0
-0.135258 0.000619 0
-0.138921 0.000459 0
-0.142104 0.000307 0
-0.144734 0.000162 0
-0.146887 0.000025 0
-0.148591 -0.000106 0
-0.149851 -0.000231 0
-0.150659 -0.000349 0
-0.151007 -0.000462 0
-0.150889 -0.000568 0
-0.150302 -0.000669 0
-0.149240 -0.000763 0
-0.147691 -0.000851 0
-0.145613 -0.000933 0
-0.142924 -0.001008 0
-0.139677 -0.001077 0
-0.135897 -0.001139 0
-0.131587 -0.001194 0
-0.126731 -0.001240 0
-0.121294 -0.001277 0
-0.115200 -0.001305 0
-0.108359 -0.001325 0
-0.100776 -0.001335 0
-0.092426 -0.001334 0
-0.083261 -0.001321 0
-0.073270 -0.001294 0
-0.062471 -0.001247 0
-0.050926 -0.001173 0
-0.038748 -0.001056 0
-0.026085 -0.000866 0
-0.013111 -0.000550 0
0.000000 0.000000 0
0.000000 0.000000 0
-0.014649 0.005963 0
-0.029541 0.010208 0
-0.045016 0.012336 0
-0.061439 0.012582 0
-0.078867 0.011585 0
-0.096994 0.010033 0
-0.115314 0.008430 0
-0.133321 0.007023 0
-0.150645 0.005874 0
-0.167079 0.004953 0
-0.182502 0.004204 0
-0.196957 0.003580 0
-0.210419 0.003040 0
-0.222701 0.002565 0
-0.234035 0.002140 0
-0.244536 0.001755 0
-0.254225 0.001402 0
-0.263096 0.001074 0
-0.271136 0.000765 0
-0.278322 0.000474 0
-0.284584 0.000201 0
-0.289601 -0.000055 0
-0.293707 -0.000297 0
-0.296955 -0.000525 0
-0.299329 -0.000740 0
-0.300810 -0.000941 0
-0.301378 -0.001131 0
-0.301024 -0.001308 0
-0.299744 -0.001473 0
-0.297539 -0.001625 0
-0.294400 -0.001765 0
-0.290259 -0.001892 0
-0.284778 -0.002008 0
-0.278227 -0.002112 0
-0.270649 -0.002203 0
-0.262043 -0.002279 0
-0.252391 -0.002341 0
-0.241630 -0.002386 0
-0.229594 -0.002415 0
-0.215988 -0.002428 0
-0.200943 -0.002425 0
-0.184409 -0.002402 0
-0.166224 -0.002359 0
-0.146374 -0.002292 0
-0.124876 -0.002192 0
-0.101852 -0.002046 0
-0.077529 -0.001826 0
-0.052210 -0.001484 0
-0.026249 -0.000930 0
0.000000 0.000000 0
0.000000 0.000000 0
-0.022708 0.009274 0
-0.045736 0.015702 0
-0.069728 0.018563 0
-0.095251 0.018384 0
-0.122268 0.016374 0
-0.150158 0.013727 0
-0.178063 0.011210 0
-0.205209 0.009126 0
-0.231084 0.007489 0
-0.255504 0.006200 0
-0.278207 0.005162 0
-0.299539 0.004302 0
-0.319537 0.003558 0
-0.337290 0.002902 0
-0.353744 0.002318 0
-0.369058 0.001793 0
-0.383200 0.001323 0
-0.396128 0.000890 0
-0.407825 0.000480 0
-0.418305 0.000099 0
-0.427680 -0.000255 0
-0.434467 -0.000585 0
-0.440214 -0.000892 0
-0.444768 -0.001179 0
-0.448048 -0.001445 0
-0.450005 -0.001693 0
-0.450611 -0.001923 0
-0.449853 -0.002134 0
-0.447730 -0.002329 0
-0.444261 -0.002505 0
-0.439497 -0.002665 0
-0.433554 -0.002805 0
-0.424965 -0.002930 0
-0.415046 -0.003041 0
-0.403675 -0.003134 0
-0.390825 -0.003208 0
-0.376499 -0.003263 0
-0.360668 -0.003296 0
-0.343105 -0.003304 0
-0.322751 -0.003294 0
-0.300469 -0.003264 0
-0.276113 -0.003208 0
-0.249141 -0.003126 0
-0.219661 -0.003015 0
-0.187604 -0.002864 0
-0.153148 -0.002658 0
-0.116652 -0.002362 0
-0.078597 -0.001915 0
-0.039530 -0.001202 0
0.000000 0.000000 0
0.000000 0.000000 0
-0.031526 0.012921 0
-0.063499 0.021482 0
-0.096942 0.024623 0
-0.132566 0.023435 0
-0.170056 0.019995 0
-0.208316 0.016107 0
-0.246091 0.012732 0
-0.282356 0.010110 0
-0.316463 0.008131 0
-0.348647 0.006593 0
-0.377811 0.005356 0
-0.405540 0.004349 0
-0.432554 0.003476 0
-0.454368 0.002696 0
-0.475335 0.002003 0
-0.495050 0.001370 0
-0.513294 0.000833 0
-0.529932 0.000360 0
-0.544891 -0.000105 0
-0.558187 -0.000535 0
-0.569943 -0.000931 0
-0.578744 -0.001296 0
-0.586071 -0.001633 0
-0.591773 -0.001944 0
-0.595771 -0.002230 0
-0.598018 -0.002492 0
-0.598485 -0.002732 0
-0.597156 -0.002950 0
-0.594027 -0.003147 0
-0.589113 -0.003324 0
-0.582457 -0.003479 0
-0.574167 -0.003613 0
-0.562829 -0.003729 0
-0.549683 -0.003827 0
-0.534597 -0.003906 0
-0.517583 -0.003964 0
-0.498724 -0.004002 0
-0.478186 -0.004016 0
-0.456326 -0.003996 0
-0.428581 -0.003957 0
-0.399442 -0.003898 0
-0.368066 -0.003803 0
-0.332493 -0.003681 0
-0.293756 -0.003528 0
-0.251285 -0.003333 0
-0.205372 -0.003083 0
-0.156557 -0.002737 0
-0.105543 -0.002226 0
-0.053102 -0.001408 0
0.000000 0.000000 0
0.000000 0.000000 0
-0.041351 0.016843 0
-0.083351 0.027324 0
-0.127457 0.030097 0
-0.174369 0.027253 0
-0.223232 0.022084 0
-0.272356 0.017014 0
-0.320165 0.013001 0
-0.365426 0.010070 0
-0.406870 0.007953 0
-0.447329 0.006305 0
-0.480712 0.004933 0
-0.513598 0.003871 0
-0.545813 0.002981 0
-0.572706 0.002147 0
-0.598333 0.001408 0
-0.622281 0.000750 0
-0.644352 0.000165 0
-0.664377 -0.000364 0
-0.682180 -0.000852 0
-0.697810 -0.001297 0
-0.711249 -0.001702 0
-0.722270 -0.002073 0
-0.731116 -0.002412 0
-0.737829 -0.002722 0
-0.742392 -0.003004 0
-0.744781 -0.003261 0
-0.744972 -0.003492 0
-0.742950 -0.003700 0
-0.738701 -0.003885 0
-0.732217 -0.004047 0
-0.723478 -0.004187 0
-0.712406 -0.004305 0
-0.698720 -0.004403 0
-0.682541 -0.004481 0
-0.663811 -0.004539 0
-0.642650 -0.004575 0
-0.619167 -0.004590 0
-0.593516 -0.004579 0
-0.566063 -0.004539 0
-0.532572 -0.004482 0
-0.497688 -0.004396 0
-0.461543 -0.004262 0
-0.416683 -0.004104 0
-0.369607 -0.003912 0
-0.316800 -0.003675 0
-0.259260 -0.003392 0
-0.197792 -0.003017 0
-0.133405 -0.002467 0
-0.067139 -0.001581 0
0.000000 0.000000 0
0.000000 0.000000 0
-0.052436 0.020904 0
-0.105807 0.032877 0
-0.161997 0.034481 0
-0.221411 0.029419 0
-0.282374 0.022500 0
-0.342620 0.016575 0
-0.400554 0.012268 0
-0.455161 0.009245 0
-0.500419 0.007211 0
-0.546049 0.005677 0
-0.585001 0.004321 0
-0.623031 0.003200 0
-0.659155 0.002236 0
-0.692207 0.001385 0
-0.722613 0.000638 0
-0.750629 -0.000025 0
-0.776314 -0.000617 0
-0.799531 -0.001152 0
-0.819719 -0.001636 0
-0.837360 -0.002073 0
-0.852512 -0.002469 0
-0.865108 -0.002825 0
-0.875168 -0.003150 0
-0.882698 -0.003447 0
-0.887680 -0.003715 0
-0.890093 -0.003956 0
-0.889918 -0.004171 0
-0.887135 -0.004362 0
-0.881731 -0.004530 0
-0.873689 -0.004674 0
-0.862993 -0.004797 0
-0.849612 -0.004897 0
-0.833467 -0.004976 0
-0.814453 -0.005031 0
-0.792044 -0.005067 0
-0.766738 -0.005083 0
-0.738609 -0.005074 0
-0.707528 -0.005042 0
-0.673151 -0.004986 0
-0.634972 -0.004908 0
-0.594067 -0.004802 0
-0.551398 -0.004657 0
-0.500522 -0.004485 0
-0.448978 -0.004250 0
-0.385270 -0.003958 0
-0.315708 -0.003643 0
-0.240984 -0.003247 0
-0.162569 -0.002676 0
-0.081825 -0.001740 0
0.000000 0.000000 0
0.000000 0.000000 0
-0.065021 0.024919 0
-0.131335 0.037744 0
-0.201131 0.037339 0
-0.274114 0.029753 0
-0.347602 0.021415 0
-0.418940 0.015206 0
-0.486857 0.011000 0
-0.544576 0.008253 0
-0.594629 0.006391 0
-0.644104 0.004804 0
-0.690651 0.003467 0
-0.734661 0.002347 0
-0.775804 0.001388 0
-0.813856 0.000554 0
-0.848175 -0.000176 0
-0.879721 -0.000817 0
-0.908804 -0.001392 0
-0.935652 -0.001911 0
-0.957155 -0.002379 0
-0.976395 -0.002805 0
-0.993067 -0.003191 0
-1.006986 -0.003523 0
-1.018062 -0.003818 0
-1.026253 -0.004099 0
-1.031533 -0.004350 0
-1.033883 -0.004575 0
-1.033281 -0.004774 0
-1.029707 -0.004949 0
-1.023145 -0.005101 0
-1.013579 -0.005229 0
-1.001014 -0.005335 0
-0.985498 -0.005423 0
-0.967148 -0.005488 0
-0.946216 -0.005522 0
-0.919559 -0.005540 0
-0.890193 -0.005539 0
-0.857839 -0.005512 0
-0.822108 -0.005459 0
-0.781855 -0.005385 0
-0.737664 -0.005291 0
-0.689620 -0.005169 0
-0.637967 -0.005017 0
-0.582299 -0.004827 0
-0.525013 -0.004584 0
-0.457569 -0.004257 0
-0.375784 -0.003880 0
-0.286786 -0.003458 0
-0.193412 -0.002872 0
-0.097333 -0.001896 0
0.000000 0.000000 0
0.000000 0.000000 0
-0.079325 0.028695 0
-0.160340 0.041586 0
-0.245282 0.038454 0
-0.332618 0.028409 0
-0.418694 0.019185 0
-0.501039 0.013411 0
-0.571084 0.009931 0
-0.631575 0.007329 0
-0.689982 0.005402 0
-0.746044 0.003843 0
-0.799014 0.002554 0
-0.848908 0.001472 0
-0.894865 0.000552 0
-0.938381 -0.000251 0
-0.974687 -0.000967 0
-1.008912 -0.001569 0
-1.040710 -0.002099 0
-1.070044 -0.002598 0
-1.093815 -0.003047 0
-1.114996 -0.003453 0
-1.133273 -0.003817 0
-1.148461 -0.004143 0
-1.160430 -0.004437 0
-1.169158 -0.004704 0
-1.174636 -0.004942 0
-1.176851 -0.005153 0
-1.175782 -0.005339 0
-1.171408 -0.005502 0
-1.163699 -0.005640 0
-1.152620 -0.005757 0
-1.138139 -0.005851 0
-1.120333 -0.005924 0
-1.099340 -0.005973 0
-1.075432 -0.005997 0
-1.045569 -0.006003 0
-1.012764 -0.005991 0
-0.977010 -0.005948 0
-0.938612 -0.005871 0
-0.891940 -0.005778 0
-0.841946 -0.005667 0
-0.786764 -0.005529 0
-0.727127 -0.005366 0
-0.663448 -0.005164 0
-0.596273 -0.004909 0
-0.525552 -0.004585 0
-0.441265 -0.004161 0
-0.335729 -0.003674 0
-0.226212 -0.003069 0
-0.113797 -0.002056 0
0.000000 0.000000 0
0.000000 0.000000 0
-0.095551 0.032078 0
-0.193229 0.044208 0
-0.294951 0.037937 0
-0.397208 0.026022 0
-0.495752 0.016895 0
-0.579795 0.011759 0
-0.652241 0.008683 0
-0.721838 0.006257 0
-0.788183 0.004397 0
-0.851292 0.002906 0
-0.910086 0.001682 0
-0.966585 0.000640 0
-1.014649 -0.000216 0
-1.061234 -0.000948 0
-1.100850 -0.001628 0
-1.138145 -0.002228 0
-1.172486 -0.002764 0
-1.203385 -0.003248 0
-1.230373 -0.003683 0
-1.253835 -0.004075 0
-1.273832 -0.004427 0
-1.290283 -0.004744 0
-1.302963 -0.005030 0
-1.312069 -0.005287 0
-1.317635 -0.005515 0
-1.319648 -0.005717 0
-1.318085 -0.005894 0
-1.312924 -0.006047 0
-1.304133 -0.006175 0
-1.291627 -0.006281 0
-1.275141 -0.006365 0
-1.254865 -0.006428 0
-1.230829 -0.006468 0
-1.202919 -0.006484 0
-1.170685 -0.006480 0
-1.134526 -0.006454 0
-1.094874 -0.006401 0
-1.052343 -0.006317 0
-1.001904 -0.006212 0
-0.949273 -0.006070 0
-0.886303 -0.005903 0
-0.818491 -0.005728 0
-0.746434 -0.005514 0
-0.669927 -0.005247 0
-0.589414 -0.004913 0
-0.505711 -0.004477 0
-0.387202 -0.003938 0
-0.261049 -0.003276 0
-0.131296 -0.002225 0
0.000000 0.000000 0
0.000000 0.000000 0
-0.113860 0.034964 0
-0.230433 0.045548 0
-0.351089 0.035984 0
-0.468614 0.022947 0
-0.568566 0.014944 0
-0.654718 0.010611 0
-0.737588 0.007518 0
-0.816305 0.005221 0
-0.889883 0.003453 0
-0.961040 0.002034 0
-1.022132 0.000914 0
-1.082033 -0.000026 0
-1.133551 -0.000880 0
-1.182466 -0.001627 0
-1.227290 -0.002292 0
-1.268441 -0.002881 0
-1.305830 -0.003407 0
-1.338864 -0.003879 0
-1.367948 -0.004303 0
-1.393254 -0.004685 0
-1.414843 -0.005031 0
-1.432751 -0.005340 0
-1.445524 -0.005620 0
-1.454757 -0.005872 0
-1.460287 -0.006096 0
-1.462025 -0.006292 0
-1.459929 -0.006463 0
-1.454000 -0.006609 0
-1.444286 -0.006731 0
-1.430911 -0.006828 0
-1.412118 -0.006904 0
-1.389417 -0.006960 0
-1.362711 -0.006992 0
-1.331884 -0.006999 0
-1.296688 -0.006983 0
-1.256574 -0.006946 0
-1.212083 -0.006884 0
-1.163243 -0.006796 0
-1.109865 -0.006679 0
-1.053589 -0.006526 0
-0.988191 -0.006331 0
-0.911842 -0.006124 0
-0.832222 -0.005890 0
-0.746265 -0.005606 0
-0.655283 -0.005265 0
-0.560798 -0.004824 0
-0.444589 -0.004227 0
-0.298487 -0.003497 0
-0.149932 -0.002403 0
0.000000 0.000000 0
0.000000 0.000000 0
-0.134230 0.037317 0
-0.272125 0.045731 0
-0.416026 0.032928 0
-0.535383 0.020290 0
-0.637007 0.013711 0
-0.735009 0.009394 0
-0.828653 0.006440 0
-0.917324 0.004283 0
-0.993362 0.002610 0
-1.068346 0.001313 0
-1.133385 0.000248 0
-1.195795 -0.000718 0
-1.253622 -0.001560 0
-1.307213 -0.002299 0
-1.355891 -0.002952 0
-1.400582 -0.003531 0
-1.441739 -0.004050 0
-1.475682 -0.004522 0
-1.506170 -0.004933 0
-1.532887 -0.005300 0
-1.555683 -0.005645 0
-1.574523 -0.005952 0
-1.587954 -0.006229 0
-1.597527 -0.006478 0
-1.603073 -0.006699 0
-1.604505 -0.006892 0
-1.601781 -0.007060 0
-1.594902 -0.007202 0
-1.583916 -0.007320 0
-1.568955 -0.007412 0
-1.548310 -0.007484 0
-1.523491 -0.007534 0
-1.494493 -0.007559 0
-1.461445 -0.007558 0
-1.424626 -0.007525 0
-1.379797 -0.007474 0
-1.330748 -0.007402 0
-1.276364 -0.007304 0
-1.217158 -0.007178 0
-1.153331 -0.007017 0
-1.084995 -0.006817 0
-1.005052 -0.006593 0
-0.923036 -0.006310 0
-0.826352 -0.005978 0
-0.723261 -0.005622 0
-0.615376 -0.005170 0
-0.502323 -0.004560 0
-0.337198 -0.003774 0
-0.169475 -0.002596 0
0.000000 0.000000 0
0.000000 0.000000 0
-0.156172 0.039135 0
-0.316193 0.045117 0
-0.481620 0.030172 0
-0.598114 0.018072 0
-0.711740 0.012259 0
-0.821663 0.008196 0
-0.926224 0.005414 0
-1.016978 0.003463 0
-1.096593 0.001956 0
-1.173926 0.000648 0
-1.246431 -0.000458 0
-1.314480 -0.001413 0
-1.377283 -0.002241 0
-1.436273 -0.002971 0
-1.486379 -0.003625 0
-1.533217 -0.004186 0
-1.576602 -0.004683 0
-1.612659 -0.005152 0
-1.644966 -0.005573 0
-1.673105 -0.005953 0
-1.696896 -0.006296 0
-1.716207 -0.006604 0
-1.730839 -0.006881 0
-1.740946 -0.007128 0
-1.746552 -0.007346 0
-1.747643 -0.007537 0
-1.744197 -0.007702 0
-1.736193 -0.007842 0
-1.723603 -0.007956 0
-1.706352 -0.008047 0
-1.684219 -0.008113 0
-1.657365 -0.008156 0
-1.625898 -0.008174 0
-1.590078 -0.008165 0
-1.550352 -0.008125 0
-1.502826 -0.008063 0
-1.451828 -0.007969 0
-1.391348 -0.007852 0
-1.326388 -0.007715 0
-1.255321 -0.007545 0
-1.178574 -0.007343 0
-1.096075 -0.007098 0
-1.010454 -0.006792 0
-0.911652 -0.006409 0
-0.794852 -0.006008 0
-0.674860 -0.005554 0
-0.553340 -0.004915 0
-0.377140 -0.004055 0
-0.190226 -0.002797 0
0.000000 0.000000 0
0.000000 0.000000 0
-0.179825 0.040324 0
-0.362212 0.043256 0
-0.541319 0.027775 0
-0.666615 0.016970 0
-0.792225 0.010895 0
-0.915748 0.007083 0
-1.021413 0.004593 0
-1.113597 0.002773 0
-1.201850 0.001217 0
-1.285701 -0.000084 0
-1.364009 -0.001185 0
-1.438507 -0.002129 0
-1.502819 -0.002924 0
-1.564294 -0.003625 0
-1.617081 -0.004275 0
-1.666194 -0.004854 0
-1.710869 -0.005374 0
-1.750426 -0.005844 0
-1.785099 -0.006267 0
-1.814650 -0.006649 0
-1.839389 -0.006993 0
-1.859353 -0.007301 0
-1.874508 -0.007578 0
-1.884851 -0.007825 0
-1.890361 -0.008042 0
-1.891020 -0.008232 0
-1.886809 -0.008395 0
-1.877710 -0.008533 0
-1.863707 -0.008644 0
-1.844771 -0.008731 0
-1.820847 -0.008791 0
-1.791855 -0.008826 0
-1.757477 -0.008837 0
-1.718039 -0.008821 0
-1.673574 -0.008778 0
-1.623815 -0.008706 0
-1.569798 -0.008600 0
-1.506407 -0.008470 0
-1.439485 -0.008301 0
-1.360981 -0.008105 0
-1.276596 -0.007894 0
-1.186901 -0.007637 0
-1.092853 -0.007318 0
-0.995102 -0.006886 0
-0.867143 -0.006430 0
-0.733379 -0.005964 0
-0.595846 -0.005323 0
-0.426157 -0.004372 0
-0.213658 -0.002997 0
0.000000 0.000000 0
0.000000 -0.000000 0
-0.207076 0.041544 0
-0.418843 0.041632 0
-0.593740 0.025126 0
-0.736255 0.015374 0
-0.875564 0.009586 0
-1.010480 0.006179 0
-1.114679 0.003877 0
-1.215674 0.001993 0
-1.312418 0.000452 0
-1.404149 -0.000825 0
-1.483912 -0.001915 0
-1.560998 -0.002824 0
-1.628014 -0.003615 0
-1.691120 -0.004350 0
-1.748873 -0.005004 0
-1.801467 -0.005588 0
-1.848472 -0.006112 0
-1.890379 -0.006584 0
-1.927500 -0.007008 0
-1.957239 -0.007395 0
-1.982421 -0.007747 0
-2.002799 -0.008051 0
-2.018217 -0.008321 0
-2.028584 -0.008570 0
-2.033846 -0.008788 0
-2.033971 -0.008978 0
-2.028939 -0.009141 0
-2.018747 -0.009276 0
-2.003412 -0.009385 0
-1.982986 -0.009470 0
-1.957587 -0.009526 0
-1.927439 -0.009549 0
-1.889605 -0.009551 0
-1.846775 -0.009529 0
-1.798611 -0.009476 0
-1.744436 -0.009395 0
-1.684708 -0.009283 0
-1.619277 -0.009138 0
-1.549702 -0.008950 0
-1.469632 -0.008717 0
-1.377264 -0.008469 0
-1.279225 -0.008197 0
-1.176269 -0.007860 0
-1.069332 -0.007437 0
-0.943401 -0.006926 0
-0.793905 -0.006386 0
-0.638914 -0.005753 0
-0.476169 -0.004723 0
-0.237516 -0.003226 0
0.000000 0.000000 0
0.000000 -0.000000 0
-0.236498 0.042451 0
-0.479086 0.040042 0
-0.648907 0.022738 0
-0.811089 0.013817 0
-0.964878 0.008438 0
-1.097939 0.005279 0
-1.212251 0.003043 0
-1.322851 0.001169 0
-1.428554 -0.000348 0
-1.521600 -0.001568 0
-1.603693 -0.002612 0
-1.682163 -0.003559 0
-1.755055 -0.004388 0
-1.822503 -0.005126 0
-1.883962 -0.005781 0
-1.940388 -0.006367 0
-1.987842 -0.006901 0
-2.030763 -0.007369 0
-2.068991 -0.007786 0
-2.099739 -0.008178 0
-2.125696 -0.008531 0
-2.146574 -0.008846 0
-2.162193 -0.009127 0
-2.172470 -0.009377 0
-2.177366 -0.009596 0
-2.176853 -0.009786 0
-2.170915 -0.009948 0
-2.159542 -0.010082 0
-2.142738 -0.010188 0
-2.120541 -0.010267 0
-2.093104 -0.010317 0
-2.060706 -0.010336 0
-2.020552 -0.010331 0
-1.975518 -0.010297 0
-1.925767 -0.010225 0
-1.866548 -0.010130 0
-1.802037 -0.010008 0
-1.731250 -0.009851 0
-1.654932 -0.009653 0
-1.573521 -0.009406 0
-1.480215 -0.009110 0
-1.373297 -0.008793 0
-1.260492 -0.008443 0
-1.142419 -0.008008 0
-1.019464 -0.007462 0
-0.858525 -0.006839 0
-0.690613 -0.006124 0
-0.518548 -0.005110 0
-0.259368 -0.003557 0
0.000000 0.000000 0
0.000000 -0.000000 0
-0.266401 0.041998 0
-0.534876 0.038727 0
-0.717606 0.021629 0
-0.898329 0.012166 0
-1.052538 0.007397 0
-1.186477 0.004503 0
-1.314091 0.002167 0
-1.435457 0.000327 0
-1.542172 -0.001115 0
-1.636168 -0.002326 0
-1.725240 -0.003421 0
-1.808886 -0.004372 0
-1.886248 -0.005207 0
-1.958494 -0.005948 0
-2.020540 -0.006592 0
-2.078233 -0.007171 0
-2.127043 -0.007711 0
-2.170984 -0.008199 0
-2.209579 -0.008637 0
-2.242365 -0.009033 0
-2.269508 -0.009389 0
-2.290990 -0.009708 0
-2.306683 -0.009992 0
-2.316716 -0.010243 0
-2.321112 -0.010463 0
-2.319865 -0.010653 0
-2.312960 -0.010813 0
-2.300370 -0.010945 0
-2.282025 -0.011048 0
-2.257725 -0.011123 0
-2.227596 -0.011170 0
-2.191621 -0.011187 0
-2.149603 -0.011176 0
-2.102079 -0.011132 0
-2.049616 -0.011050 0
-1.987921 -0.010936 0
-1.921703 -0.010787 0
-1.844445 -0.010610 0
-1.761054 -0.010406 0
-1.671955 -0.010153 0
-1.577537 -0.009841 0
-1.469910 -0.009469 0
-1.347167 -0.009069 0
-1.218278 -0.008624 0
-1.084993 -0.008060 0
-0.928778 -0.007346 0
-0.745131 -0.006546 0
-0.559670 -0.005495 0
-0.280430 -0.003856 0
0.000000 0.000000 0
0.000000 -0.000000 0
-0.300870 0.041889 0
-0.591302 0.036710 0
-0.791717 0.019589 0
-0.987762 0.010683 0
-1.138967 0.006365 0
-1.285206 0.003568 0
-1.424292 0.001258 0
-1.546381 -0.000483 0
-1.653745 -0.001912 0
-1.755451 -0.003186 0
-1.851439 -0.004281 0
-1.941305 -0.005230 0
-2.019304 -0.006047 0
-2.092944 -0.006776 0
-2.156372 -0.007450 0
-2.214591 -0.008059 0
-2.266594 -0.008607 0
-2.312245 -0.009101 0
-2.351923 -0.009547 0
-2.385685 -0.009947 0
-2.413574 -0.010306 0
-2.435619 -0.010627 0
-2.450657 -0.010915 0
-2.460081 -0.011172 0
-2.463776 -0.011394 0
-2.461689 -0.011585 0
-2.453816 -0.011744 0
-2.440209 -0.011873 0
-2.420982 -0.011970 0
-2.394354 -0.012040 0
-2.361794 -0.012084 0
-2.323125 -0.012095 0
-2.277973 -0.012077 0
-2.226694 -0.012026 0
-2.169402 -0.011940 0
-2.105971 -0.011816 0
-2.037534 -0.011649 0
-1.958766 -0.011437 0
-1.868181 -0.011207 0
-1.771338 -0.010947 0
-1.668602 -0.010627 0
-1.560268 -0.010236 0
-1.436896 -0.009770 0
-1.295045 -0.009275 0
-1.148758 -0.008710 0
-0.997496 -0.007915 0
-0.798466 -0.007019 0
-0.599270 -0.005912 0
-0.301613 -0.004173 0
0.000000 -0.000000 0
0.000000 0.000000 0
-0.353975 0.040880 0
-0.640543 0.033691 0
-0.872495 0.017329 0
-1.067590 0.009389 0