# vtk DataFile Version 2.0
generated by CFD-lab course output (written by Tobias Neckel) 
ASCII

DATASET STRUCTURED_GRID
DIMENSIONS  51 51 1 
POINTS 2601 float

0.000000 0.000000 0
0.020000 0.000000 0
0.040000 0.000000 0
0.060000 0.000000 0
0.080000 0.000000 0
0.100000 0.000000 0
0.120000 0.000000 0
0.140000 0.000000 0
0.160000 0.000000 0
0.180000 0.000000 0
0.200000 0.000000 0
0.220000 0.000000 0
0.240000 0.000000 0
0.260000 0.000000 0
0.280000 0.000000 0
0.300000 0.000000 0
0.320000 0.000000 0
0.340000 0.000000 0
0.360000 0.000000 0
0.380000 0.000000 0
0.400000 0.000000 0
0.420000 0.000000 0
0.440000 0.000000 0
0.460000 0.000000 0
0.480000 0.000000 0
0.500000 0.000000 0
0.520000 0.000000 0
0.540000 0.000000 0
0.560000 0.000000 0
0.580000 0.000000 0
0.600000 0.000000 0
0.620000 0.000000 0
0.640000 0.000000 0
0.660000 0.000000 0
0.680000 0.000000 0
0.700000 0.000000 0
0.720000 0.000000 0
0.740000 0.000000 0
0.760000 0.000000 0
0.780000 0.000000 0
0.800000 0.000000 0
0.820000 0.000000 0
0.840000 0.000000 0
0.860000 0.000000 0
0.880000 0.000000 0
0.900000 0.000000 0
0.920000 0.000000 0
0.940000 0.000000 0
0.960000 0.000000 0
0.980000 0.000000 0
1.000000 0.000000 0
0.000000 0.020000 0
0.020000 0.020000 0
0.040000 0.020000 0
0.060000 0.020000 0
0.080000 0.020000 0
0.100000 0.020000 0
0.120000 0.020000 0
0.140000 0.020000 0
0.160000 0.020000 0
0.180000 0.020000 0
0.200000 0.020000 0
0.220000 0.020000 0
0.240000 0.020000 0
0.260000 0.020000 0
0.280000 0.020000 0
0.300000 0.020000 0
0.320000 0.020000 0
0.340000 0.020000 0
0.360000 0.020000 0
0.380000 0.020000 0
0.400000 0.020000 0
0.420000 0.020000 0
0.440000 0.020000 0
0.460000 0.020000 0
0.480000 0.020000 0
0.500000 0.020000 0
0.520000 0.020000 0
0.540000 0.020000 0
0.560000 0.020000 0
0.580000 0.020000 0
0.600000 0.020000 0
0.620000 0.020000 0
0.640000 0.020000 0
0.660000 0.020000 0
0.680000 0.020000 0
0.700000 0.020000 0
0.720000 0.020000 0
0.740000 0.020000 0
0.760000 0.020000 0
0.780000 0.020000 0
0.800000 0.020000 0
0.820000 0.020000 0
0.840000 0.020000 0
0.860000 0.020000 0
0.880000 0.020000 0
0.900000 0.020000 0
0.920000 0.020000 0
0.940000 0.020000 0
0.960000 0.020000 0
0.980000 0.020000 0
1.000000 0.020000 0
0.000000 0.040000 0
0.020000 0.040000 0
0.040000 0.040000 0
0.060000 0.040000 0
0.080000 0.040000 0
0.100000 0.040000 0
0.120000 0.040000 0
0.140000 0.040000 0
0.160000 0.040000 0
0.180000 0.040000 0
0.200000 0.040000 0
0.220000 0.040000 0
0.240000 0.040000 0
0.260000 0.040000 0
0.280000 0.040000 0
0.300000 0.040000 0
0.320000 0.040000 0
0.340000 0.040000 0
0.360000 0.040000 0
0.380000 0.040000 0
0.400000 0.040000 0
0.420000 0.040000 0
0.440000 0.040000 0
0.460000 0.040000 0
0.480000 0.040000 0
0.500000 0.040000 0
0.520000 0.040000 0
0.540000 0.040000 0
0.560000 0.040000 0
0.580000 0.040000 0
0.600000 0.040000 0
0.620000 0.040000 0
0.640000 0.040000 0
0.660000 0.040000 0
0.680000 0.040000 0
0.700000 0.040000 0
0.720000 0.040000 0
0.740000 0.040000 0
0.760000 0.040000 0
0.780000 0.040000 0
0.800000 0.040000 0
0.820000 0.040000 0
0.840000 0.040000 0
0.860000 0.040000 0
0.880000 0.040000 0
0.900000 0.040000 0
0.920000 0.040000 0
0.940000 0.040000 0
0.960000 0.040000 0
0.980000 0.040000 0
1.000000 0.040000 0
0.000000 0.060000 0
0.020000 0.060000 0
0.040000 0.060000 0
0.060000 0.060000 0
0.080000 0.060000 0
0.100000 0.060000 0
0.120000 0.060000 0
0.140000 0.060000 0
0.160000 0.060000 0
0.180000 0.060000 0
0.200000 0.060000 0
0.220000 0.060000 0
0.240000 0.060000 0
0.260000 0.060000 0
0.280000 0.060000 0
0.300000 0.060000 0
0.320000 0.060000 0
0.340000 0.060000 0
0.360000 0.060000 0
0.380000 0.060000 0
0.400000 0.060000 0
0.420000 0.060000 0
0.440000 0.060000 0
0.460000 0.060000 0
0.480000 0.060000 0
0.500000 0.060000 0
0.520000 0.060000 0
0.540000 0.060000 0
0.560000 0.060000 0
0.580000 0.060000 0
0.600000 0.060000 0
0.620000 0.060000 0
0.640000 0.060000 0
0.660000 0.060000 0
0.680000 0.060000 0
0.700000 0.060000 0
0.720000 0.060000 0
0.740000 0.060000 0
0.760000 0.060000 0
0.780000 0.060000 0
0.800000 0.060000 0
0.820000 0.060000 0
0.840000 0.060000 0
0.860000 0.060000 0
0.880000 0.060000 0
0.900000 0.060000 0
0.920000 0.060000 0
0.940000 0.060000 0
0.960000 0.060000 0
0.980000 0.060000 0
1.000000 0.060000 0
0.000000 0.080000 0
0.020000 0.080000 0
0.040000 0.080000 0
0.060000 0.080000 0
0.080000 0.080000 0
0.100000 0.080000 0
0.120000 0.080000 0
0.140000 0.080000 0
0.160000 0.080000 0
0.180000 0.080000 0
0.200000 0.080000 0
0.220000 0.080000 0
0.240000 0.080000 0
0.260000 0.080000 0
0.280000 0.080000 0
0.300000 0.080000 0
0.320000 0.080000 0
0.340000 0.080000 0
0.360000 0.080000 0
0.380000 0.080000 0
0.400000 0.080000 0
0.420000 0.080000 0
0.440000 0.080000 0
0.460000 0.080000 0
0.480000 0.080000 0
0.500000 0.080000 0
0.520000 0.080000 0
0.540000 0.080000 0
0.560000 0.080000 0
0.580000 0.080000 0
0.600000 0.080000 0
0.620000 0.080000 0
0.640000 0.080000 0
0.660000 0.080000 0
0.680000 0.080000 0
0.700000 0.080000 0
0.720000 0.080000 0
0.740000 0.080000 0
0.760000 0.080000 0
0.780000 0.080000 0
0.800000 0.080000 0
0.820000 0.080000 0
0.840000 0.080000 0
0.860000 0.080000 0
0.880000 0.080000 0
0.900000 0.080000 0
0.920000 0.080000 0
0.940000 0.080000 0
0.960000 0.080000 0
0.980000 0.080000 0
1.000000 0.080000 0
0.000000 0.100000 0
0.020000 0.100000 0
0.040000 0.100000 0
0.060000 0.100000 0
0.080000 0.100000 0
0.100000 0.100000 0
0.120000 0.100000 0
0.140000 0.100000 0
0.160000 0.100000 0
0.180000 0.100000 0
0.200000 0.100000 0
0.220000 0.100000 0
0.240000 0.100000 0
0.260000 0.100000 0
0.280000 0.100000 0
0.300000 0.100000 0
0.320000 0.100000 0
0.340000 0.100000 0
0.360000 0.100000 0
0.380000 0.100000 0
0.400000 0.100000 0
0.420000 0.100000 0
0.440000 0.100000 0
0.460000 0.100000 0
0.480000 0.100000 0
0.500000 0.100000 0
0.520000 0.100000 0
0.540000 0.100000 0
0.560000 0.100000 0
0.580000 0.100000 0
0.600000 0.100000 0
0.620000 0.100000 0
0.640000 0.100000 0
0.660000 0.100000 0
0.680000 0.100000 0
0.700000 0.100000 0
0.720000 0.100000 0
0.740000 0.100000 0
0.760000 0.100000 0
0.780000 0.100000 0
0.800000 0.100000 0
0.820000 0.100000 0
0.840000 0.100000 0
0.860000 0.100000 0
0.880000 0.100000 0
0.900000 0.100000 0
0.920000 0.100000 0
0.940000 0.100000 0
0.960000 0.100000 0
0.980000 0.100000 0
1.000000 0.100000 0
0.000000 0.120000 0
0.020000 0.120000 0
0.040000 0.120000 0
0.060000 0.120000 0
0.080000 0.120000 0
0.100000 0.120000 0
0.120000 0.120000 0
0.140000 0.120000 0
0.160000 0.120000 0
0.180000 0.120000 0
0.200000 0.120000 0
0.220000 0.120000 0
0.240000 0.120000 0
0.260000 0.120000 0
0.280000 0.120000 0
0.300000 0.120000 0
0.320000 0.120000 0
0.340000 0.120000 0
0.360000 0.120000 0
0.380000 0.120000 0
0.400000 0.120000 0
0.420000 0.120000 0
0.440000 0.120000 0
0.460000 0.120000 0
0.480000 0.120000 0
0.500000 0.120000 0
0.520000 0.120000 0
0.540000 0.120000 0
0.560000 0.120000 0
0.580000 0.120000 0
0.600000 0.120000 0
0.620000 0.120000 0
0.640000 0.120000 0
0.660000 0.120000 0
0.680000 0.120000 0
0.700000 0.120000 0
0.720000 0.120000 0
0.740000 0.120000 0
0.760000 0.120000 0
0.780000 0.120000 0
0.800000 0.120000 0
0.820000 0.120000 0
0.840000 0.120000 0
0.860000 0.120000 0
0.880000 0.120000 0
0.900000 0.120000 0
0.920000 0.120000 0
0.940000 0.120000 0
0.960000 0.120000 0
0.980000 0.120000 0
1.000000 0.120000 0
0.000000 0.140000 0
0.020000 0.140000 0
0.040000 0.140000 0
0.060000 0.140000 0
0.080000 0.140000 0
0.100000 0.140000 0
0.120000 0.140000 0
0.140000 0.140000 0
0.160000 0.140000 0
0.180000 0.140000 0
0.200000 0.140000 0
0.220000 0.140000 0
0.240000 0.140000 0
0.260000 0.140000 0
0.280000 0.140000 0
0.300000 0.140000 0
0.320000 0.140000 0
0.340000 0.140000 0
0.360000 0.140000 0
0.380000 0.140000 0
0.400000 0.140000 0
0.420000 0.140000 0
0.440000 0.140000 0
0.460000 0.140000 0
0.480000 0.140000 0
0.500000 0.140000 0
0.520000 0.140000 0
0.540000 0.140000 0
0.560000 0.140000 0
0.580000 0.140000 0
0.600000 0.140000 0
0.620000 0.140000 0
0.640000 0.140000 0
0.660000 0.140000 0
0.680000 0.140000 0
0.700000 0.140000 0
0.720000 0.140000 0
0.740000 0.140000 0
0.760000 0.140000 0
0.780000 0.140000 0
0.800000 0.140000 0
0.820000 0.140000 0
0.840000 0.140000 0
0.860000 0.140000 0
0.880000 0.140000 0
0.900000 0.140000 0
0.920000 0.140000 0
0.940000 0.140000 0
0.960000 0.140000 0
0.980000 0.140000 0
1.000000 0.140000 0
0.000000 0.160000 0
0.020000 0.160000 0
0.040000 0.160000 0
0.060000 0.160000 0
0.080000 0.160000 0
0.100000 0.160000 0
0.120000 0.160000 0
0.140000 0.160000 0
0.160000 0.160000 0
0.180000 0.160000 0
0.200000 0.160000 0
0.220000 0.160000 0
0.240000 0.160000 0
0.260000 0.160000 0
0.280000 0.160000 0
0.300000 0.160000 0
0.320000 0.160000 0
0.340000 0.160000 0
0.360000 0.160000 0
0.380000 0.160000 0
0.400000 0.160000 0
0.420000 0.160000 0
0.440000 0.160000 0
0.460000 0.160000 0
0.480000 0.160000 0
0.500000 0.160000 0
0.520000 0.160000 0
0.540000 0.160000 0
0.560000 0.160000 0
0.580000 0.160000 0
0.600000 0.160000 0
0.620000 0.160000 0
0.640000 0.160000 0
0.660000 0.160000 0
0.680000 0.160000 0
0.700000 0.160000 0
0.720000 0.160000 0
0.740000 0.160000 0
0.760000 0.160000 0
0.780000 0.160000 0
0.800000 0.160000 0
0.820000 0.160000 0
0.840000 0.160000 0
0.860000 0.160000 0
0.880000 0.160000 0
0.900000 0.160000 0
0.920000 0.160000 0
0.940000 0.160000 0
0.960000 0.160000 0
0.980000 0.160000 0
1.000000 0.160000 0
0.000000 0.180000 0
0.020000 0.180000 0
0.040000 0.180000 0
0.060000 0.180000 0
0.080000 0.180000 0
0.100000 0.180000 0
0.120000 0.180000 0
0.140000 0.180000 0
0.160000 0.180000 0
0.180000 0.180000 0
0.200000 0.180000 0
0.220000 0.180000 0
0.240000 0.180000 0
0.260000 0.180000 0
0.280000 0.180000 0
0.300000 0.180000 0
0.320000 0.180000 0
0.340000 0.180000 0
0.360000 0.180000 0
0.380000 0.180000 0
0.400000 0.180000 0
0.420000 0.180000 0
0.440000 0.180000 0
0.460000 0.180000 0
0.480000 0.180000 0
0.500000 0.180000 0
0.520000 0.180000 0
0.540000 0.180000 0
0.560000 0.180000 0
0.580000 0.180000 0
0.600000 0.180000 0
0.620000 0.180000 0
[...]
POINT_DATA 2601 

VECTORS velocity float
0.000000 0.000000 0
-0.000000 0.000000 0
-0.000000 0.000000 0
-0.000000 0.000000 0
-0.000000 0.000000 0
0.000000 0.000000 0
0.000000 0.000000 0
0.000000 0.000000 0
-0.000000 0.000000 0
-0.000000 0.000000 0
-0.000000 0.000000 0
-0.000001 0.000000 0
-0.000001 0.000000 0
-0.000000 0.000000 0
-0.000000 0.000000 0
-0.000000 0.000000 0
-0.000000 0.000000 0
-0.000000 0.000000 0
-0.000000 0.000000 0
-0.000000 0.000000 0
-0.000000 0.000000 0
-0.000000 0.000000 0
-0.000000 0.000000 0
-0.000000 0.000000 0
-0.000000 0.000000 0
-0.000000 0.000000 0
-0.000000 0.000000 0
0.000000 0.000000 0
0.000000 0.000000 0
0.000000 0.000000 0
0.000000 0.000000 0
0.000000 0.000000 0
0.000000 0.000000 0
0.000000 0.000000 0
0.000000 0.000000 0
0.000000 0.000000 0
0.000000 0.000000 0
0.000000 0.000000 0
0.000000 0.000000 0
0.000000 0.000000 0
0.000000 0.000000 0
0.000000 0.000000 0
0.000000 0.000000 0
0.000000 0.000000 0
0.000000 0.000000 0
0.000000 0.000000 0
0.000000 0.000000 0
0.000000 0.000000 0
0.000000 0.000000 0
0.000000 0.000000 0
0.000000 0.000000 0
0.000000 -0.000000 0
-0.000007 0.000010 0
-0.000346 0.000239 0
-0.001098 0.000495 0
-0.002227 0.000708 0
-0.003645 0.000852 0
-0.005237 0.000922 0
-0.006885 0.000919 0
-0.008473 0.000850 0
-0.009900 0.000727 0
-0.011085 0.000563 0
-0.011971 0.000374 0
-0.012523 0.000174 0
-0.012725 -0.000027 0
-0.012584 -0.000220 0
-0.012118 -0.000395 0
-0.011356 -0.000548 0
-0.010337 -0.000676 0
-0.009106 -0.000777 0
-0.007708 -0.000849 0
-0.006192 -0.000894 0
-0.004604 -0.000913 0
-0.002989 -0.000907 0
-0.001388 -0.000880 0
0.000162 -0.000833 0
0.001628 -0.000771 0
0.002982 -0.000697 0
0.004205 -0.000613 0
0.005279 -0.000523 0
0.006194 -0.000429 0
0.006945 -0.000334 0
0.007529 -0.000241 0
0.007948 -0.000149 0
0.008206 -0.000062 0
0.008311 0.000020 0
0.008270 0.000097 0
0.008095 0.000168 0
0.007794 0.000232 0
0.007379 0.000291 0
0.006861 0.000344 0
0.006251 0.000391 0
0.005561 0.000431 0
0.004806 0.000463 0
0.004003 0.000483 0
0.003176 0.000488 0
0.002355 0.000472 0
0.001580 0.000427 0
0.000901 0.000345 0
0.000379 0.000220 0
0.000071 0.000071 0
0.000000 0.000000 0
0.000000 -0.000000 0
-0.000223 0.000345 0
-0.001063 0.001091 0
-0.002563 0.001881 0
-0.004657 0.002547 0
-0.007209 0.003010 0
-0.010046 0.003240 0
-0.012975 0.003235 0
-0.015811 0.003014 0
-0.018387 0.002612 0
-0.020564 0.002071 0
-0.022242 0.001436 0
-0.023355 0.000753 0
-0.023873 0.000061 0
-0.023797 -0.000608 0
-0.023150 -0.001229 0
-0.021977 -0.001781 0
-0.020338 -0.002250 0
-0.018304 -0.002629 0
-0.015951 -0.002914 0
-0.013359 -0.003105 0
-0.010608 -0.003203 0
-0.007777 -0.003216 0
-0.004938 -0.003151 0
-0.002158 -0.003016 0
0.000503 -0.002821 0
0.002993 -0.002577 0
0.005270 -0.002296 0
0.007301 -0.001990 0
0.009063 -0.001666 0
0.010542 -0.001335 0
0.011731 -0.001003 0
0.012629 -0.000677 0
0.013240 -0.000363 0
0.013575 -0.000064 0
0.013647 0.000216 0
0.013472 0.000476 0
0.013067 0.000715 0
0.012452 0.000933 0
0.011646 0.001129 0
0.010670 0.001300 0
0.009549 0.001445 0
0.008307 0.001558 0
0.006979 0.001629 0
0.005603 0.001648 0
0.004230 0.001596 0
0.002925 0.001454 0
0.001763 0.001201 0
0.000833 0.000830 0
0.000222 0.000379 0
0.000000 0.000000 0
0.000000 -0.000000 0
-0.000462 0.001072 0
-0.001822 0.002579 0
-0.004034 0.004089 0
-0.006986 0.005355 0
-0.010505 0.006242 0
-0.014377 0.006688 0
-0.018369 0.006684 0
-0.022248 0.006261 0
-0.025807 0.005479 0
-0.028868 0.004419 0
-0.031297 0.003165 0
-0.033006 0.001805 0
-0.033948 0.000414 0
-0.034113 -0.000943 0
-0.033525 -0.002215 0
-0.032233 -0.003360 0
-0.030306 -0.004349 0
-0.027827 -0.005164 0
-0.024889 -0.005794 0
-0.021594 -0.006237 0
-0.018043 -0.006495 0
-0.014336 -0.006578 0
-0.010571 -0.006499 0
-0.006838 -0.006274 0
-0.003218 -0.005922 0
0.000217 -0.005463 0
0.003405 -0.004920 0
0.006294 -0.004316 0
0.008847 -0.003671 0
0.011040 -0.003002 0
0.012857 -0.002327 0
0.014292 -0.001658 0
0.015347 -0.001009 0
0.016031 -0.000387 0
0.016358 0.000200 0
0.016346 0.000748 0
0.016019 0.001252 0
0.015401 0.001713 0
0.014519 0.002126 0
0.013401 0.002489 0
0.012078 0.002794 0
0.010587 0.003033 0
0.008970 0.003187 0
0.007277 0.003237 0
0.005571 0.003150 0
0.003928 0.002894 0
0.002438 0.002436 0
0.001206 0.001761 0
0.000349 0.000904 0
0.000000 0.000000 0
0.000000 -0.000000 0
-0.000669 0.002167 0
-0.002503 0.004664 0
-0.005363 0.007045 0
-0.009082 0.009018 0
-0.013451 0.010401 0
-0.018226 0.011103 0
-0.023144 0.011106 0
-0.027946 0.010452 0
-0.032394 0.009231 0
-0.036286 0.007561 0
-0.039465 0.005575 0
-0.041822 0.003404 0
-0.043294 0.001168 0
-0.043863 -0.001030 0
-0.043544 -0.003108 0
-0.042384 -0.005000 0
-0.040452 -0.006657 0
-0.037835 -0.008046 0
-0.034633 -0.009147 0
-0.030956 -0.009951 0
-0.026919 -0.010462 0
-0.022635 -0.010688 0
-0.018217 -0.010649 0
-0.013774 -0.010369 0
-0.009404 -0.009875 0
-0.005197 -0.009199 0
-0.001229 -0.008373 0
0.002431 -0.007433 0
0.005730 -0.006413 0
0.008628 -0.005344 0
0.011100 -0.004255 0
0.013131 -0.003167 0
0.014717 -0.002102 0
0.015864 -0.001075 0
0.016582 -0.000100 0
0.016890 0.000814 0
0.016813 0.001660 0
0.016377 0.002434 0
0.015615 0.003129 0
0.014558 0.003741 0
0.013245 0.004258 0
0.011717 0.004666 0
0.010021 0.004940 0
0.008213 0.005047 0
0.006362 0.004946 0
0.004550 0.004587 0
0.002873 0.003923 0
0.001452 0.002920 0
0.000432 0.001585 0
0.000000 0.000000 0
0.000000 0.000000 0
-0.000835 0.003575 0
-0.003074 0.007274 0
-0.006502 0.010668 0
-0.010901 0.013443 0
-0.016027 0.015385 0
-0.021609 0.016380 0
-0.027364 0.016403 0
-0.033014 0.015510 0
-0.038301 0.013819 0
-0.043007 0.011490 0
-0.046956 0.008701 0
-0.050025 0.005634 0
-0.052135 0.002455 0
-0.053256 -0.000694 0
-0.053395 -0.003693 0
-0.052589 -0.006452 0
-0.050902 -0.008899 0
-0.048416 -0.010983 0
-0.045232 -0.012673 0
-0.041458 -0.013951 0
-0.037213 -0.014817 0
-0.032618 -0.015279 0
-0.027795 -0.015359 0
-0.022862 -0.015087 0
-0.017932 -0.014500 0
-0.013108 -0.013638 0
-0.008483 -0.012548 0
-0.004136 -0.011276 0
-0.000138 -0.009868 0
0.003459 -0.008372 0
0.006613 -0.006830 0
0.009298 -0.005276 0
0.011501 -0.003741 0
0.013219 -0.002251 0
0.014460 -0.000827 0
0.015238 0.000517 0
0.015574 0.001765 0
0.015497 0.002911 0
0.015038 0.003945 0
0.014235 0.004858 0
0.013126 0.005636 0
0.011754 0.006257 0
0.010171 0.006691 0
0.008434 0.006895 0
0.006611 0.006814 0
0.004787 0.006383 0
0.003063 0.005533 0
0.001569 0.004203 0
0.000473 0.002356 0
0.000000 0.000000 0
0.000000 0.000000 0
-0.000965 0.005242 0
-0.003539 0.010331 0
-0.007453 0.014872 0
-0.012446 0.018542 0
-0.018243 0.021108 0
-0.024553 0.022440 0
-0.031077 0.022510 0
-0.037522 0.021389 0
-0.043620 0.019224 0
-0.049138 0.016217 0
-0.053889 0.012593 0
-0.057736 0.008583 0
-0.060588 0.004399 0
-0.062400 0.000229 0
-0.063167 -0.003775 0
-0.062914 -0.007493 0
-0.061695 -0.010830 0
-0.059583 -0.013717 0
-0.056667 -0.016105 0
-0.053053 -0.017970 0
-0.048855 -0.019302 0
-0.044193 -0.020106 0
-0.039191 -0.020406 0
-0.033974 -0.020232 0
-0.028661 -0.019630 0
-0.023369 -0.018648 0
-0.018201 -0.017344 0
-0.013253 -0.015778 0
-0.008605 -0.014008 0
-0.004326 -0.012095 0
-0.000472 -0.010093 0
0.002918 -0.008054 0
0.005817 -0.006023 0
0.008211 -0.004034 0
0.010099 -0.002118 0
0.011489 -0.000300 0
0.012397 0.001402 0
0.012847 0.002969 0
0.012868 0.004391 0
0.012499 0.005654 0
0.011777 0.006739 0
0.010747 0.007620 0
0.009457 0.008260 0
0.007964 0.008607 0
0.006335 0.008593 0
0.004651 0.008136 0
0.003016 0.007141 0
0.001565 0.005510 0
0.000477 0.003154 0
0.000000 0.000000 0
0.000000 0.000001 0
-0.001065 0.007115 0
-0.003910 0.013761 0
-0.008230 0.019574 0
-0.013733 0.024232 0
-0.020121 0.027492 0
-0.027087 0.029214 0
-0.034318 0.029372 0
-0.041515 0.028054 0
-0.048399 0.025435 0
-0.054732 0.021759 0
-0.060316 0.017300 0
-0.065003 0.012333 0
-0.068690 0.007119 0
-0.071318 0.001885 0
-0.072865 -0.003180 0
-0.073344 -0.007924 0
-0.072794 -0.012231 0
-0.071272 -0.016011 0
-0.068855 -0.019202 0
-0.065635 -0.021764 0
-0.061718 -0.023677 0
-0.057216 -0.024943 0
-0.052250 -0.025579 0
-0.046945 -0.025617 0
-0.041425 -0.025105 0
-0.035811 -0.024098 0
-0.030219 -0.022664 0
-0.024754 -0.020872 0
-0.019513 -0.018795 0
-0.014577 -0.016506 0
-0.010017 -0.014074 0
-0.005886 -0.011564 0
-0.002226 -0.009035 0
0.000935 -0.006533 0
0.003585 -0.004104 0
0.005721 -0.001782 0
0.007351 0.000408 0
0.008490 0.002440 0
0.009162 0.004293 0
0.009400 0.005950 0
0.009242 0.007388 0
0.008729 0.008577 0
0.007906 0.009474 0
0.006826 0.010017 0
0.005551 0.010127 0
0.004158 0.009702 0
0.002746 0.008620 0
0.001448 0.006742 0
0.000449 0.003921 0
0.000000 0.000000 0
0.000000 0.000001 0
-0.001141 0.009152 0
-0.004200 0.017495 0
-0.008851 0.024694 0
-0.014785 0.030432 0
-0.021685 0.034461 0
-0.029233 0.036637 0
-0.037111 0.036938 0
-0.045013 0.035470 0
-0.052658 0.032441 0
-0.059801 0.028133 0
-0.066239 0.022864 0
-0.071816 0.016957 0
-0.076416 0.010714 0
-0.079966 0.004404 0
-0.082427 -0.001749 0
-0.083796 -0.007565 0
-0.084092 -0.012903 0
-0.083355 -0.017655 0
-0.081645 -0.021742 0
-0.079036 -0.025107 0
-0.075618 -0.027721 0
-0.071491 -0.029574 0
-0.066769 -0.030676 0
-0.061569 -0.031058 0
-0.056015 -0.030764 0
-0.050231 -0.029855 0
-0.044339 -0.028402 0
-0.038455 -0.026484 0
-0.032686 -0.024185 0
-0.027130 -0.021591 0
-0.021871 -0.018784 0
-0.016980 -0.015845 0
-0.012512 -0.012844 0
-0.008509 -0.009846 0
-0.004999 -0.006905 0
-0.001998 -0.004066 0
0.000490 -0.001367 0
0.002471 0.001159 0
0.003958 0.003481 0
0.004974 0.005573 0
0.005552 0.007410 0
0.005728 0.008957 0
0.005541 0.010163 0
0.005040 0.010962 0
0.004276 0.011262 0
0.003321 0.010941 0
0.002263 0.009850 0
0.001228 0.007807 0
0.000391 0.004603 0
0.000000 0.000000 0
0.000000 0.000000 0
-0.001196 0.011314 0
-0.004420 0.021471 0
-0.009336 0.030158 0
-0.015622 0.037065 0
-0.022956 0.041941 0
-0.031013 0.044640 0
-0.039472 0.045153 0
-0.048027 0.043600 0
-0.056396 0.040223 0
-0.064333 0.035341 0
-0.071632 0.029314 0
-0.078130 0.022509 0
-0.083700 0.015268 0
-0.088256 0.007896 0
-0.091742 0.000651 0
-0.094133 -0.006259 0
-0.095428 -0.012672 0
-0.095648 -0.018458 0
-0.094831 -0.023521 0
-0.093030 -0.027791 0
-0.090315 -0.031222 0
-0.086770 -0.033792 0
-0.082492 -0.035501 0
-0.077589 -0.036371 0
-0.072179 -0.036443 0
-0.066384 -0.035775 0
-0.060328 -0.034440 0
-0.054135 -0.032525 0
-0.047923 -0.030119 0
-0.041800 -0.027321 0
-0.035868 -0.024225 0
-0.030211 -0.020924 0
-0.024904 -0.017505 0
-0.020005 -0.014046 0
-0.015558 -0.010615 0
-0.011593 -0.007271 0
-0.008127 -0.004061 0
-0.005167 -0.001028 0
-0.002713 0.001790 0
-0.000755 0.004355 0
0.000726 0.006635 0
0.001759 0.008588 0
0.002377 0.010162 0
0.002616 0.011282 0
0.002521 0.011846 0
0.002148 0.011716 0
0.001574 0.010713 0
0.000907 0.008614 0
0.000306 0.005149 0
0.000000 0.000000 0
0.000000 0.000000 0
-0.001235 0.013571 0
-0.004579 0.025633 0
-0.009697 0.035895 0
-0.016263 0.044052 0
-0.023953 0.049853 0
-0.032442 0.053153 0
-0.041412 0.053953 0
-0.050558 0.052394 0
-0.059603 0.048748 0
-0.068303 0.043369 0
-0.076450 0.036660 0
-0.083877 0.029024 0
-0.090450 0.020841 0
-0.096069 0.012446 0
-0.100661 0.004128 0
-0.104178 -0.003879 0
-0.106600 -0.011388 0
-0.107924 -0.018252 0
-0.108164 -0.024360 0
-0.107349 -0.029623 0
-0.105526 -0.033981 0
-0.102756 -0.037397 0
-0.099117 -0.039857 0
-0.094703 -0.041371 0
-0.089618 -0.041969 0
-0.083980 -0.041705 0
-0.077910 -0.040650 0
-0.071535 -0.038890 0
-0.064981 -0.036520 0
-0.058367 -0.033646 0
-0.051808 -0.030373 0
-0.045405 -0.026808 0
-0.039251 -0.023050 0
-0.033420 -0.019192 0
-0.027976 -0.015317 0
-0.022965 -0.011496 0
-0.018421 -0.007792 0
-0.014367 -0.004256 0
-0.010812 -0.000932 0
-0.007763 0.002135 0
-0.005218 0.004896 0
-0.003164 0.007305 0
-0.001578 0.009306 0
-0.000436 0.010818 0
0.000291 0.011730 0
0.000645 0.011889 0
0.000682 0.011091 0
0.000487 0.009074 0
0.000194 0.005510 0
0.000000 0.000000 0
0.000000 0.000000 0
-0.001260 0.015893 0
-0.004685 0.029931 0
-0.009947 0.041841 0
-0.016724 0.051321 0
-0.024694 0.058120 0
-0.033537 0.062100 0
-0.042941 0.063269 0
-0.052608 0.061792 0
-0.062268 0.057968 0
-0.071680 0.052187 0
-0.080641 0.044888 0
-0.088980 0.036509 0
-0.096560 0.027460 0
-0.103268 0.018107 0
-0.109016 0.008760 0
-0.113738 -0.000320 0
-0.117385 -0.008925 0
-0.119930 -0.016895 0
-0.121363 -0.024097 0
-0.121689 -0.030430 0
-0.120927 -0.035816 0
-0.119112 -0.040201 0
-0.116300 -0.043554 0
-0.112563 -0.045869 0
-0.107990 -0.047165 0
-0.102685 -0.047483 0
-0.096763 -0.046885 0
-0.090351 -0.045454 0
-0.083577 -0.043288 0
-0.076569 -0.040494 0
-0.069454 -0.037186 0
-0.062350 -0.033481 0
-0.055364 -0.029490 0
-0.048591 -0.025321 0
-0.042112 -0.021071 0
-0.035996 -0.016825 0
-0.030293 -0.012659 0
-0.025044 -0.008637 0
-0.020277 -0.004814 0
-0.016009 -0.001239 0
-0.012255 0.002035 0
-0.009022 0.004948 0
-0.006311 0.007435 0
-0.004111 0.009413 0
-0.002409 0.010764 0
-0.001186 0.011325 0
-0.000412 0.010870 0
-0.000031 0.009102 0
0.000054 0.005636 0
0.000000 -0.000000 0
0.000000 0.000000 0
-0.001271 0.018255 0
-0.004744 0.034320 0
-0.010099 0.047934 0
-0.017021 0.058799 0
-0.025196 0.066666 0
-0.034314 0.071400 0
-0.044070 0.073023 0
-0.054179 0.071721 0
-0.064379 0.067819 0
-0.074438 0.061742 0
-0.084156 0.053960 0
-0.093367 0.044943 0
-0.101927 0.035128 0
-0.109719 0.024903 0
-0.116641 0.014598 0
-0.122606 0.004489 0
-0.127541 -0.005196 0
-0.131396 -0.014273 0
-0.134132 -0.022600 0
-0.135728 -0.030060 0
-0.136174 -0.036558 0
-0.135478 -0.042024 0
-0.133669 -0.046406 0
-0.130791 -0.049681 0
-0.126914 -0.051848 0
-0.122124 -0.052932 0
-0.116525 -0.052984 0
-0.110235 -0.052076 0
-0.103383 -0.050302 0
-0.096102 -0.047768 0
-0.088528 -0.044593 0
-0.080790 -0.040899 0
-0.073015 -0.036809 0
-0.065315 -0.032444 0
-0.057792 -0.027912 0
-0.050534 -0.023316 0
-0.043614 -0.018743 0
-0.037092 -0.014271 0
-0.031016 -0.009967 0
-0.025422 -0.005888 0
-0.020337 -0.002091 0
-0.015790 0.001362 0
-0.011803 0.004394 0
-0.008394 0.006916 0
-0.005572 0.008805 0
-0.003343 0.009892 0
-0.001707 0.009936 0
-0.000648 0.008609 0
-0.000114 0.005479 0
0.000000 -0.000000 0
0.000000 0.000000 0
-0.001272 0.020636 0
-0.004762 0.038759 0
-0.010162 0.054118 0
-0.017168 0.066419 0
-0.025477 0.075414 0
-0.034790 0.080974 0
-0.044816 0.083134 0
-0.055281 0.082100 0
-0.065935 0.078226 0
-0.076559 0.071965 0
-0.086959 0.063816 0
-0.096973 0.054279 0
-0.106460 0.043813 0
-0.115297 0.032821 0
-0.123372 0.021648 0
-0.130584 0.010581 0
-0.136841 -0.000136 0
-0.142058 -0.010304 0
-0.146172 -0.019765 0
-0.149136 -0.028388 0
-0.150911 -0.036065 0
-0.151476 -0.042706 0
-0.150827 -0.048241 0
-0.148982 -0.052624 0
-0.145983 -0.055832 0
-0.141892 -0.057872 0
-0.136796 -0.058774 0
-0.130802 -0.058596 0
-0.124032 -0.057421 0
-0.116618 -0.055349 0
-0.108704 -0.052498 0
-0.100429 -0.048993 0
-0.091934 -0.044965 0
-0.083350 -0.040544 0
-0.074798 -0.035852 0
-0.066389 -0.031003 0
-0.058218 -0.026101 0
-0.050368 -0.021235 0
-0.042907 -0.016484 0
-0.035895 -0.011917 0
-0.029381 -0.007596 0
-0.023409 -0.003587 0
-0.018022 0.000039 0
-0.013265 0.003182 0
-0.009184 0.005714 0
-0.005817 0.007461 0
-0.003201 0.008175 0
-0.001364 0.007509 0
-0.000311 0.004989 0
0.000000 -0.000000 0
0.000000 0.000000 0
-0.001263 0.023016 0
-0.004743 0.043211 0
-0.010146 0.060341 0
-0.017180 0.074115 0
-0.025556 0.084288 0
-0.034986 0.090739 0
-0.045196 0.093514 0
-0.055926 0.092840 0
-0.066942 0.089097 0
-0.078035 0.082766 0
-0.089025 0.074375 0
-0.099755 0.064444 0
-0.110087 0.053452 0
-0.119898 0.041815 0
-0.129072 0.029885 0
-0.137497 0.017957 0
-0.145062 0.006277 0
-0.151659 -0.004942 0
-0.157194 -0.015522 0
-0.161591 -0.025321 0
-0.164785 -0.034218 0
-0.166724 -0.042107 0
-0.167373 -0.048900 0
-0.166717 -0.054525 0
-0.164766 -0.058938 0
-0.161556 -0.062118 0
-0.157149 -0.064074 0
-0.151632 -0.064841 0
-0.145117 -0.064486 0
-0.137732 -0.063096 0
-0.129618 -0.060782 0
-0.120926 -0.057669 0
-0.111806 -0.053889 0
-0.102408 -0.049579 0
-0.092872 -0.044872 0
-0.083330 -0.039896 0
-0.073901 -0.034765 0
-0.064692 -0.029583 0
-0.055797 -0.024439 0
-0.047297 -0.019414 0
-0.039269 -0.014577 0
-0.031778 -0.009998 0
-0.024893 -0.005749 0
-0.018681 -0.001922 0
-0.013221 0.001357 0
-0.008593 0.003909 0
-0.004885 0.005483 0
-0.002176 0.005719 0
-0.000536 0.004115 0
0.000000 -0.000000 0
0.000000 0.000000 0
-0.001247 0.025379 0
-0.004694 0.047643 0
-0.010063 0.066556 0
-0.017074 0.081828 0
-0.025452 0.093219 0
-0.034926 0.100614 0
-0.045235 0.104074 0
-0.056139 0.103846 0
-0.067416 0.100335 0
-0.078875 0.094047 0
-0.090347 0.085536 0
-0.101684 0.075341 0
-0.112757 0.063956 0
-0.123445 0.051806 0
-0.133629 0.039246 0
-0.143193 0.026570 0
-0.152013 0.014026 0
-0.159967 0.001828 0
-0.166929 -0.009833 0
-0.172789 -0.020797 0
-0.177458 -0.030932 0
-0.180853 -0.040117 0
-0.182909 -0.048248 0
-0.183575 -0.055230 0
-0.182828 -0.060994 0
-0.180670 -0.065490 0
-0.177134 -0.068698 0
-0.172282 -0.070628 0
-0.166206 -0.071321 0
-0.159024 -0.070848 0
-0.150873 -0.069304 0
-0.141905 -0.066805 0
-0.132281 -0.063484 0
-0.122164 -0.059478 0
-0.111714 -0.054930 0
-0.101084 -0.049974 0
-0.090419 -0.044739 0
-0.079849 -0.039340 0
-0.069495 -0.033879 0
-0.059465 -0.028445 0
-0.049861 -0.023115 0
-0.040778 -0.017962 0
-0.032310 -0.013059 0
-0.024558 -0.008491 0
-0.017628 -0.004374 0
-0.011645 -0.000875 0
-0.006746 0.001758 0
-0.003078 0.003160 0
-0.000788 0.002813 0
0.000000 -0.000000 0
0.000000 0.000001 0
-0.001224 0.027710 0
-0.004619 0.052027 0
-0.009921 0.072721 0
-0.016865 0.089504 0
-0.025187 0.102140 0
-0.034634 0.110521 0
-0.044962 0.114726 0
-0.055946 0.115022 0
-0.067384 0.111834 0
-0.079098 0.105697 0
-0.090934 0.097184 0
-0.102757 0.086855 0
-0.114446 0.075212 0
-0.125887 0.062687 0
-0.136965 0.049634 0
-0.147561 0.036341 0
-0.157547 0.023051 0
-0.166787 0.009974 0
-0.175137 -0.002700 0
-0.182454 -0.014793 0
-0.188614 -0.026154 0
-0.193512 -0.036656 0
-0.197050 -0.046177 0
-0.199145 -0.054606 0
-0.199734 -0.061844 0
-0.198784 -0.067813 0
-0.196292 -0.072462 0
-0.192291 -0.075769 0
-0.186844 -0.077743 0
-0.180052 -0.078429 0
-0.172041 -0.077901 0
-0.162960 -0.076261 0
-0.152975 -0.073630 0
-0.142260 -0.070146 0
-0.130993 -0.065952 0
-0.119348 -0.061191 0
-0.107494 -0.056000 0
-0.095589 -0.050507 0
-0.083779 -0.044823 0
-0.072204 -0.039048 0
-0.060991 -0.033265 0
-0.050268 -0.027548 0
-0.040159 -0.021968 0
-0.030797 -0.016604 0
-0.022327 -0.011556 0
-0.014917 -0.006974 0
-0.008754 -0.003084 0
-0.004059 -0.000239 0
-0.001064 0.001037 0
0.000000 -0.000000 0
0.000000 0.000001 0
-0.001196 0.029999 0
-0.004524 0.056341 0
-0.009732 0.078800 0
-0.016568 0.097094 0
-0.024784 0.110988 0
-0.034139 0.120388 0
-0.044408 0.125386 0
-0.055383 0.126268 0
-0.066879 0.123487 0
-0.078735 0.117598 0
-0.090812 0.109195 0
-0.102989 0.098853 0
-0.115155 0.087086 0
-0.127207 0.074325 0
-0.139035 0.060920 0
-0.150525 0.047152 0
-0.161549 0.033252 0
-0.171964 0.019419 0
-0.181616 0.005834 0
-0.190340 -0.007321 0
-0.197973 -0.019873 0
-0.204381 -0.031681 0
-0.209440 -0.042615 0
-0.213033 -0.052547 0
-0.215062 -0.061354 0
-0.215454 -0.068931 0
-0.214166 -0.075191 0
-0.211192 -0.080076 0
-0.206565 -0.083559 0
-0.200358 -0.085651 0
-0.192678 -0.086396 0
-0.183665 -0.085872 0
-0.173483 -0.084184 0
-0.162316 -0.081460 0
-0.150354 -0.077841 0
-0.137793 -0.073472 0
-0.124825 -0.068498 0
-0.111637 -0.063055 0
-0.098404 -0.057264 0
-0.085295 -0.051233 0
-0.072470 -0.045051 0
-0.060087 -0.038795 0
-0.048305 -0.032529 0
-0.037293 -0.026322 0
-0.027235 -0.020254 0
-0.018345 -0.014448 0
-0.010870 -0.009100 0
-0.005099 -0.004531 0
-0.001359 -0.001246 0
0.000000 -0.000000 0
0.000000 0.000001 0
-0.001164 0.032234 0
-0.004413 0.060563 0
-0.009505 0.084764 0
-0.016200 0.104556 0
-0.024264 0.119711 0
-0.033470 0.130146 0
-0.043609 0.135970 0
-0.054489 0.137493 0
-0.065944 0.135186 0
-0.077829 0.129630 0
-0.090021 0.121438 0
-0.102413 0.111198 0
-0.114908 0.099430 0
-0.127413 0.086567 0
-0.139830 0.072952 0
-0.152051 0.058855 0
-0.163953 0.044490 0
-0.175395 0.030041 0
-0.186218 0.015676 0
-0.196248 0.001564 0
-0.205294 -0.012113 0
-0.213179 -0.025189 0