# vtk DataFile Version 2.0
generated by CFD-lab course output (written by Tobias Neckel) 
ASCII

DATASET STRUCTURED_GRID
DIMENSIONS  51 51 1 
POINTS 2601 float

0.000000 0.000000 0
0.020000 0.000000 0
0.040000 0.000000 0
0.060000 0.000000 0
0.080000 0.000000 0
0.100000 0.000000 0
0.120000 0.000000 0
0.140000 0.000000 0
0.160000 0.000000 0
0.180000 0.000000 0
0.200000 0.000000 0
0.220000 0.000000 0
0.240000 0.000000 0
0.260000 0.000000 0
0.280000 0.000000 0
0.300000 0.000000 0
0.320000 0.000000 0
0.340000 0.000000 0
0.360000 0.000000 0
0.380000 0.000000 0
0.400000 0.000000 0
0.420000 0.000000 0
0.440000 0.000000 0
0.460000 0.000000 0
0.480000 0.000000 0
0.500000 0.000000 0
0.520000 0.000000 0
0.540000 0.000000 0
0.560000 0.000000 0
0.580000 0.000000 0
0.600000 0.000000 0
0.620000 0.000000 0
0.640000 0.000000 0
0.660000 0.000000 0
0.680000 0.000000 0
0.700000 0.000000 0
0.720000 0.000000 0
0.740000 0.000000 0
0.760000 0.000000 0
0.780000 0.000000 0
0.800000 0.000000 0
0.820000 0.000000 0
0.840000 0.000000 0
0.860000 0.000000 0
0.880000 0.000000 0
0.900000 0.000000 0
0.920000 0.000000 0
0.940000 0.000000 0
0.960000 0.000000 0
0.980000 0.000000 0
1.000000 0.000000 0
0.000000 0.020000 0
0.020000 0.020000 0
0.040000 0.020000 0
0.060000 0.020000 0
0.080000 0.020000 0
0.100000 0.020000 0
0.120000 0.020000 0
0.140000 0.020000 0
0.160000 0.020000 0
0.180000 0.020000 0
0.200000 0.020000 0
0.220000 0.020000 0
0.240000 0.020000 0
0.260000 0.020000 0
0.280000 0.020000 0
0.300000 0.020000 0
0.320000 0.020000 0
0.340000 0.020000 0
0.360000 0.020000 0
0.380000 0.020000 0
0.400000 0.020000 0
0.420000 0.020000 0
0.440000 0.020000 0
0.460000 0.020000 0
0.480000 0.020000 0
0.500000 0.020000 0
0.520000 0.020000 0
0.540000 0.020000 0
0.560000 0.020000 0
0.580000 0.020000 0
0.600000 0.020000 0
0.620000 0.020000 0
0.640000 0.020000 0
0.660000 0.020000 0
0.680000 0.020000 0
0.700000 0.020000 0
0.720000 0.020000 0
0.740000 0.020000 0
0.760000 0.020000 0
0.780000 0.020000 0
0.800000 0.020000 0
0.820000 0.020000 0
0.840000 0.020000 0
0.860000 0.020000 0
0.880000 0.020000 0
0.900000 0.020000 0
0.920000 0.020000 0
0.940000 0.020000 0
0.960000 0.020000 0
0.980000 0.020000 0
1.000000 0.020000 0
0.000000 0.040000 0
0.020000 0.040000 0
0.040000 0.040000 0
0.060000 0.040000 0
0.080000 0.040000 0
0.100000 0.040000 0
0.120000 0.040000 0
0.140000 0.040000 0
0.160000 0.040000 0
0.180000 0.040000 0
0.200000 0.040000 0
0.220000 0.040000 0
0.240000 0.040000 0
0.260000 0.040000 0
0.280000 0.040000 0
0.300000 0.040000 0
0.320000 0.040000 0
0.340000 0.040000 0
0.360000 0.040000 0
0.380000 0.040000 0
0.400000 0.040000 0
0.420000 0.040000 0
0.440000 0.040000 0
0.460000 0.040000 0
0.480000 0.040000 0
0.500000 0.040000 0
0.520000 0.040000 0
0.540000 0.040000 0
0.560000 0.040000 0
0.580000 0.040000 0
0.600000 0.040000 0
0.620000 0.040000 0
0.640000 0.040000 0
0.660000 0.040000 0
0.680000 0.040000 0
0.700000 0.040000 0
0.720000 0.040000 0
0.740000 0.040000 0
0.760000 0.040000 0
0.780000 0.040000 0
0.800000 0.040000 0
0.820000 0.040000 0
0.840000 0.040000 0
0.860000 0.040000 0
0.880000 0.040000 0
0.900000 0.040000 0
0.920000 0.040000 0
0.940000 0.040000 0
0.960000 0.040000 0
0.980000 0.040000 0
1.000000 0.040000 0
0.000000 0.060000 0
0.020000 0.060000 0
0.040000 0.060000 0
0.060000 0.060000 0
0.080000 0.060000 0
0.100000 0.060000 0
0.120000 0.060000 0
0.140000 0.060000 0
0.160000 0.060000 0
0.180000 0.060000 0
0.200000 0.060000 0
0.220000 0.060000 0
0.240000 0.060000 0
0.260000 0.060000 0
0.280000 0.060000 0
0.300000 0.060000 0
0.320000 0.060000 0
0.340000 0.060000 0
0.360000 0.060000 0
0.380000 0.060000 0
0.400000 0.060000 0
0.420000 0.060000 0
0.440000 0.060000 0
0.460000 0.060000 0
0.480000 0.060000 0
0.500000 0.060000 0
0.520000 0.060000 0
0.540000 0.060000 0
0.560000 0.060000 0
0.580000 0.060000 0
0.600000 0.060000 0
0.620000 0.060000 0
0.640000 0.060000 0
0.660000 0.060000 0
0.680000 0.060000 0
0.700000 0.060000 0
0.720000 0.060000 0
0.740000 0.060000 0
0.760000 0.060000 0
0.780000 0.060000 0
0.800000 0.060000 0
0.820000 0.060000 0
0.840000 0.060000 0
0.860000 0.060000 0
0.880000 0.060000 0
0.900000 0.060000 0
0.920000 0.060000 0
0.940000 0.060000 0
0.960000 0.060000 0
0.980000 0.060000 0
1.000000 0.060000 0
0.000000 0.080000 0
0.020000 0.080000 0
0.040000 0.080000 0
0.060000 0.080000 0
0.080000 0.080000 0
0.100000 0.080000 0
0.120000 0.080000 0
0.140000 0.080000 0
0.160000 0.080000 0
0.180000 0.080000 0
0.200000 0.080000 0
0.220000 0.080000 0
0.240000 0.080000 0
0.260000 0.080000 0
0.280000 0.080000 0
0.300000 0.080000 0
0.320000 0.080000 0
0.340000 0.080000 0
0.360000 0.080000 0
0.380000 0.080000 0
0.400000 0.080000 0
0.420000 0.080000 0
0.440000 0.080000 0
0.460000 0.080000 0
0.480000 0.080000 0
0.500000 0.080000 0
0.520000 0.080000 0
0.540000 0.080000 0
0.560000 0.080000 0
0.580000 0.080000 0
0.600000 0.080000 0
0.620000 0.080000 0
0.640000 0.080000 0
0.660000 0.080000 0
0.680000 0.080000 0
0.700000 0.080000 0
0.720000 0.080000 0
0.740000 0.080000 0
0.760000 0.080000 0
0.780000 0.080000 0
0.800000 0.080000 0
0.820000 0.080000 0
0.840000 0.080000 0
0.860000 0.080000 0
0.880000 0.080000 0
0.900000 0.080000 0
0.920000 0.080000 0
0.940000 0.080000 0
0.960000 0.080000 0
0.980000 0.080000 0
1.000000 0.080000 0
0.000000 0.100000 0
0.020000 0.100000 0
0.040000 0.100000 0
0.060000 0.100000 0
0.080000 0.100000 0
0.100000 0.100000 0
0.120000 0.100000 0
0.140000 0.100000 0
0.160000 0.100000 0
0.180000 0.100000 0
0.200000 0.100000 0
0.220000 0.100000 0
0.240000 0.100000 0
0.260000 0.100000 0
0.280000 0.100000 0
0.300000 0.100000 0
0.320000 0.100000 0
0.340000 0.100000 0
0.360000 0.100000 0
0.380000 0.100000 0
0.400000 0.100000 0
0.420000 0.100000 0
0.440000 0.100000 0
0.460000 0.100000 0
0.480000 0.100000 0
0.500000 0.100000 0
0.520000 0.100000 0
0.540000 0.100000 0
0.560000 0.100000 0
0.580000 0.100000 0
0.600000 0.100000 0
0.620000 0.100000 0
0.640000 0.100000 0
0.660000 0.100000 0
0.680000 0.100000 0
0.700000 0.100000 0
0.720000 0.100000 0
0.740000 0.100000 0
0.760000 0.100000 0
0.780000 0.100000 0
0.800000 0.100000 0
0.820000 0.100000 0
0.840000 0.100000 0
0.860000 0.100000 0
0.880000 0.100000 0
0.900000 0.100000 0
0.920000 0.100000 0
0.940000 0.100000 0
0.960000 0.100000 0
0.980000 0.100000 0
1.000000 0.100000 0
0.000000 0.120000 0
0.020000 0.120000 0
0.040000 0.120000 0
0.060000 0.120000 0
0.080000 0.120000 0
0.100000 0.120000 0
0.120000 0.120000 0
0.140000 0.120000 0
0.160000 0.120000 0
0.180000 0.120000 0
0.200000 0.120000 0
0.220000 0.120000 0
0.240000 0.120000 0
0.260000 0.120000 0
0.280000 0.120000 0
0.300000 0.120000 0
0.320000 0.120000 0
0.340000 0.120000 0
0.360000 0.120000 0
0.380000 0.120000 0
0.400000 0.120000 0
0.420000 0.120000 0
0.440000 0.120000 0
0.460000 0.120000 0
0.480000 0.120000 0
0.500000 0.120000 0
0.520000 0.120000 0
0.540000 0.120000 0
0.560000 0.120000 0
0.580000 0.120000 0
0.600000 0.120000 0
0.620000 0.120000 0
0.640000 0.120000 0
0.660000 0.120000 0
0.680000 0.120000 0
0.700000 0.120000 0
0.720000 0.120000 0
0.740000 0.120000 0
0.760000 0.120000 0
0.780000 0.120000 0
0.800000 0.120000 0
0.820000 0.120000 0
0.840000 0.120000 0
0.860000 0.120000 0
0.880000 0.120000 0
0.900000 0.120000 0
0.920000 0.120000 0
0.940000 0.120000 0
0.960000 0.120000 0
0.980000 0.120000 0
1.000000 0.120000 0
0.000000 0.140000 0
0.020000 0.140000 0
0.040000 0.140000 0
0.060000 0.140000 0
0.080000 0.140000 0
0.100000 0.140000 0
0.120000 0.140000 0
0.140000 0.140000 0
0.160000 0.140000 0
0.180000 0.140000 0
0.200000 0.140000 0
0.220000 0.140000 0
0.240000 0.140000 0
0.260000 0.140000 0
0.280000 0.140000 0
0.300000 0.140000 0
0.320000 0.140000 0
0.340000 0.140000 0
0.360000 0.140000 0
0.380000 0.140000 0
0.400000 0.140000 0
0.420000 0.140000 0
0.440000 0.140000 0
0.460000 0.140000 0
0.480000 0.140000 0
0.500000 0.140000 0
0.520000 0.140000 0
0.540000 0.140000 0
0.560000 0.140000 0
0.580000 0.140000 0
0.600000 0.140000 0
0.620000 0.140000 0
0.640000 0.140000 0
0.660000 0.140000 0
0.680000 0.140000 0
0.700000 0.140000 0
0.720000 0.140000 0
0.740000 0.140000 0
0.760000 0.140000 0
0.780000 0.140000 0
0.800000 0.140000 0
0.820000 0.140000 0
0.840000 0.140000 0
0.860000 0.140000 0
0.880000 0.140000 0
0.900000 0.140000 0
0.920000 0.140000 0
0.940000 0.140000 0
0.960000 0.140000 0
0.980000 0.140000 0
1.000000 0.140000 0
0.000000 0.160000 0
0.020000 0.160000 0
0.040000 0.160000 0
0.060000 0.160000 0
0.080000 0.160000 0
0.100000 0.160000 0
0.120000 0.160000 0
0.140000 0.160000 0
0.160000 0.160000 0
0.180000 0.160000 0
0.200000 0.160000 0
0.220000 0.160000 0
0.240000 0.160000 0
0.260000 0.160000 0
0.280000 0.160000 0
0.300000 0.160000 0
0.320000 0.160000 0
0.340000 0.160000 0
0.360000 0.160000 0
0.380000 0.160000 0
0.400000 0.160000 0
0.420000 0.160000 0
0.440000 0.160000 0
0.460000 0.160000 0
0.480000 0.160000 0
0.500000 0.160000 0
0.520000 0.160000 0
0.540000 0.160000 0
0.560000 0.160000 0
0.580000 0.160000 0
0.600000 0.160000 0
0.620000 0.160000 0
0.640000 0.160000 0
0.660000 0.160000 0
0.680000 0.160000 0
0.700000 0.160000 0
0.720000 0.160000 0
0.740000 0.160000 0
0.760000 0.160000 0
0.780000 0.160000 0
0.800000 0.160000 0
0.820000 0.160000 0
0.840000 0.160000 0
0.860000 0.160000 0
0.880000 0.160000 0
0.900000 0.160000 0
0.920000 0.160000 0
0.940000 0.160000 0
0.960000 0.160000 0
0.980000 0.160000 0
1.000000 0.160000 0
0.000000 0.180000 0
0.020000 0.180000 0
0.040000 0.180000 0
0.060000 0.180000 0
0.080000 0.180000 0
0.100000 0.180000 0
0.120000 0.180000 0
0.140000 0.180000 0
0.160000 0.180000 0
0.180000 0.180000 0
0.200000 0.180000 0
0.220000 0.180000 0
0.240000 0.180000 0
0.260000 0.180000 0
0.280000 0.180000 0
0.300000 0.180000 0
0.320000 0.180000 0
0.340000 0.180000 0
0.360000 0.180000 0
0.380000 0.180000 0
0.400000 0.180000 0
0.420000 0.180000 0
0.440000 0.180000 0
0.460000 0.180000 0
0.480000 0.180000 0
0.500000 0.180000 0
0.520000 0.180000 0
0.540000 0.180000 0
0.560000 0.180000 0
0.580000 0.180000 0
0.600000 0.180000 0
0.620000 0.180000 0
[...]
POINT_DATA 2601 

VECTORS velocity float
0.000000 0.000000 0
-0.000000 0.000000 0
0.000000 0.000000 0
0.000000 0.000000 0
0.000001 0.000000 0
0.000000 0.000000 0
0.000000 0.000000 0
-0.000000 0.000000 0
-0.000000 0.000000 0
-0.000000 0.000000 0
-0.000000 0.000000 0
-0.000000 0.000000 0
-0.000000 0.000000 0
-0.000000 0.000000 0
-0.000000 0.000000 0
-0.000000 0.000000 0
-0.000000 0.000000 0
-0.000000 0.000000 0
-0.000000 0.000000 0
-0.000000 0.000000 0
-0.000000 0.000000 0
-0.000000 0.000000 0
0.000000 0.000000 0
0.000000 0.000000 0
0.000000 0.000000 0
0.000000 0.000000 0
0.000000 0.000000 0
-0.000000 0.000000 0
-0.000000 0.000000 0
-0.000000 0.000000 0
-0.000000 0.000000 0
-0.000000 0.000000 0
-0.000000 0.000000 0
0.000000 0.000000 0
0.000000 0.000000 0
0.000000 0.000000 0
0.000000 0.000000 0
0.000000 0.000000 0
0.000000 0.000000 0
0.000000 0.000000 0
0.000000 0.000000 0
0.000000 0.000000 0
-0.000000 0.000000 0
-0.000000 0.000000 0
-0.000000 0.000000 0
-0.000000 0.000000 0
0.000000 0.000000 0
0.000000 0.000000 0
0.000000 0.000000 0
0.000000 0.000000 0
0.000000 0.000000 0
0.000000 -0.000000 0
-0.000006 0.000010 0
-0.000355 0.000247 0
-0.001128 0.000510 0
-0.002290 0.000729 0
-0.003748 0.000877 0
-0.005386 0.000948 0
-0.007078 0.000943 0
-0.008707 0.000871 0
-0.010170 0.000744 0
-0.011383 0.000576 0
-0.012288 0.000382 0
-0.012849 0.000176 0
-0.013054 -0.000030 0
-0.012908 -0.000226 0
-0.012431 -0.000404 0
-0.011653 -0.000560 0
-0.010615 -0.000690 0
-0.009361 -0.000791 0
-0.007938 -0.000864 0
-0.006396 -0.000909 0
-0.004782 -0.000928 0
-0.003140 -0.000922 0
-0.001513 -0.000894 0
0.000061 -0.000847 0
0.001550 -0.000783 0
0.002927 -0.000707 0
0.004169 -0.000623 0
0.005261 -0.000531 0
0.006192 -0.000436 0
0.006957 -0.000341 0
0.007553 -0.000246 0
0.007982 -0.000153 0
0.008249 -0.000065 0
0.008360 0.000018 0
0.008325 0.000096 0
0.008154 0.000167 0
0.007856 0.000233 0
0.007442 0.000292 0
0.006924 0.000346 0
0.006313 0.000393 0
0.005621 0.000434 0
0.004862 0.000466 0
0.004055 0.000487 0
0.003222 0.000493 0
0.002393 0.000478 0
0.001608 0.000433 0
0.000920 0.000351 0
0.000388 0.000225 0
0.000074 0.000073 0
0.000000 -0.000000 0
0.000000 0.000000 0
-0.000228 0.000355 0
-0.001092 0.001122 0
-0.002634 0.001936 0
-0.004788 0.002620 0
-0.007413 0.003095 0
-0.010328 0.003329 0
-0.013337 0.003322 0
-0.016248 0.003092 0
-0.018888 0.002676 0
-0.021118 0.002118 0
-0.022835 0.001466 0
-0.023972 0.000766 0
-0.024500 0.000059 0
-0.024422 -0.000624 0
-0.023762 -0.001255 0
-0.022568 -0.001816 0
-0.020900 -0.002293 0
-0.018831 -0.002677 0
-0.016439 -0.002965 0
-0.013806 -0.003157 0
-0.011011 -0.003256 0
-0.008135 -0.003268 0
-0.005252 -0.003201 0
-0.002429 -0.003064 0
0.000275 -0.002866 0
0.002805 -0.002619 0
0.005120 -0.002334 0
0.007186 -0.002024 0
0.008981 -0.001696 0
0.010489 -0.001361 0
0.011703 -0.001025 0
0.012624 -0.000696 0
0.013255 -0.000378 0
0.013607 -0.000076 0
0.013694 0.000207 0
0.013530 0.000470 0
0.013135 0.000711 0
0.012527 0.000931 0
0.011726 0.001129 0
0.010753 0.001303 0
0.009631 0.001451 0
0.008387 0.001566 0
0.007053 0.001641 0
0.005669 0.001662 0
0.004286 0.001613 0
0.002968 0.001473 0
0.001793 0.001220 0
0.000849 0.000846 0
0.000227 0.000388 0
0.000000 0.000000 0
0.000000 0.000000 0
-0.000474 0.001103 0
-0.001872 0.002653 0
-0.004146 0.004206 0
-0.007181 0.005507 0
-0.010799 0.006417 0
-0.014777 0.006872 0
-0.018876 0.006862 0
-0.022858 0.006422 0
-0.026507 0.005615 0
-0.029643 0.004522 0
-0.032131 0.003235 0
-0.033880 0.001842 0
-0.034844 0.000420 0
-0.035017 -0.000964 0
-0.034423 -0.002258 0
-0.033112 -0.003422 0
-0.031156 -0.004426 0
-0.028640 -0.005252 0
-0.025659 -0.005890 0
-0.022315 -0.006337 0
-0.018711 -0.006598 0
-0.014949 -0.006681 0
-0.011128 -0.006601 0
-0.007338 -0.006373 0
-0.003662 -0.006017 0
-0.000172 -0.005553 0
0.003068 -0.005003 0
0.006008 -0.004392 0
0.008610 -0.003739 0
0.010847 -0.003063 0
0.012705 -0.002380 0
0.014178 -0.001705 0
0.015267 -0.001049 0
0.015981 -0.000420 0
0.016335 0.000173 0
0.016347 0.000726 0
0.016040 0.001236 0
0.015439 0.001701 0
0.014571 0.002120 0
0.013463 0.002488 0
0.012147 0.002799 0
0.010659 0.003043 0
0.009041 0.003205 0
0.007344 0.003260 0
0.005629 0.003179 0
0.003974 0.002927 0
0.002471 0.002470 0
0.001224 0.001791 0
0.000355 0.000922 0
0.000000 0.000000 0
0.000000 0.000000 0
-0.000686 0.002228 0
-0.002571 0.004795 0
-0.005510 0.007244 0
-0.009332 0.009272 0
-0.013821 0.010691 0
-0.018726 0.011407 0
-0.023775 0.011402 0
-0.028702 0.010722 0
-0.033263 0.009461 0
-0.037252 0.007742 0
-0.040509 0.005703 0
-0.042924 0.003480 0
-0.044436 0.001196 0
-0.045025 -0.001046 0
-0.044712 -0.003160 0
-0.043543 -0.005083 0
-0.041589 -0.006765 0
-0.038941 -0.008174 0
-0.035699 -0.009289 0
-0.031974 -0.010105 0
-0.027883 -0.010621 0
-0.023541 -0.010851 0
-0.019062 -0.010813 0
-0.014555 -0.010530 0
-0.010120 -0.010031 0
-0.005848 -0.009349 0
-0.001815 -0.008515 0
0.001909 -0.007565 0
0.005270 -0.006535 0
0.008229 -0.005456 0
0.010757 -0.004355 0
0.012842 -0.003257 0
0.014478 -0.002181 0
0.015671 -0.001145 0
0.016432 -0.000159 0
0.016780 0.000764 0
0.016737 0.001619 0
0.016332 0.002401 0
0.015596 0.003106 0
0.014562 0.003727 0
0.013266 0.004254 0
0.011751 0.004672 0
0.010063 0.004956 0
0.008259 0.005074 0
0.006407 0.004983 0
0.004588 0.004632 0
0.002902 0.003970 0
0.001469 0.002962 0
0.000438 0.001613 0
0.000000 0.000000 0
0.000000 0.000000 0
-0.000857 0.003674 0
-0.003157 0.007476 0
-0.006678 0.010966 0
-0.011196 0.013818 0
-0.016459 0.015811 0
-0.022190 0.016826 0
-0.028096 0.016839 0
-0.033891 0.015911 0
-0.039312 0.014165 0
-0.044134 0.011768 0
-0.048181 0.008907 0
-0.051327 0.005768 0
-0.053494 0.002521 0
-0.054653 -0.000688 0
-0.054813 -0.003740 0
-0.054013 -0.006544 0
-0.052318 -0.009028 0
-0.049813 -0.011143 0
-0.046598 -0.012856 0
-0.042785 -0.014153 0
-0.038493 -0.015032 0
-0.033844 -0.015502 0
-0.028961 -0.015587 0
-0.023963 -0.015315 0
-0.018964 -0.014725 0
-0.014068 -0.013858 0
-0.009370 -0.012759 0
-0.004950 -0.011478 0
-0.000877 -0.010059 0
0.002794 -0.008550 0
0.006020 -0.006994 0
0.008775 -0.005426 0
0.011046 -0.003878 0
0.012829 -0.002374 0
0.014130 -0.000936 0
0.014965 0.000421 0
0.015354 0.001683 0
0.015325 0.002842 0
0.014909 0.003890 0
0.014144 0.004817 0
0.013068 0.005610 0
0.011724 0.006246 0
0.010162 0.006696 0
0.008441 0.006916 0
0.006627 0.006851 0
0.004806 0.006432 0
0.003081 0.005588 0
0.001581 0.004255 0
0.000477 0.002392 0
0.000000 0.000000 0
0.000000 0.000000 0
-0.000990 0.005384 0
-0.003632 0.010615 0
-0.007649 0.015283 0
-0.012774 0.019054 0
-0.018723 0.021686 0
-0.025198 0.023044 0
-0.031889 0.023103 0
-0.038497 0.021938 0
-0.044746 0.019704 0
-0.050399 0.016611 0
-0.055266 0.012895 0
-0.059209 0.008793 0
-0.062137 0.004522 0
-0.064007 0.000274 0
-0.064813 -0.003800 0
-0.064585 -0.007578 0
-0.063376 -0.010965 0
-0.061260 -0.013894 0
-0.058330 -0.016317 0
-0.054691 -0.018210 0
-0.050457 -0.019563 0
-0.045750 -0.020384 0
-0.040695 -0.020694 0
-0.035417 -0.020527 0
-0.030038 -0.019926 0
-0.024673 -0.018942 0
-0.019428 -0.017633 0
-0.014398 -0.016058 0
-0.009667 -0.014279 0
-0.005303 -0.012353 0
-0.001363 -0.010337 0
0.002113 -0.008283 0
0.005097 -0.006235 0
0.007575 -0.004229 0
0.009543 -0.002296 0
0.011010 -0.000460 0
0.011991 0.001259 0
0.012509 0.002846 0
0.012594 0.004286 0
0.012282 0.005569 0
0.011612 0.006674 0
0.010627 0.007577 0
0.009375 0.008240 0
0.007914 0.008609 0
0.006309 0.008617 0
0.004643 0.008178 0
0.003017 0.007195 0
0.001569 0.005566 0
0.000479 0.003194 0
0.000000 0.000000 0
0.000000 0.000000 0
-0.001092 0.007305 0
-0.004010 0.014134 0
-0.008440 0.020108 0
-0.014084 0.024892 0
-0.020636 0.028235 0
-0.027778 0.029992 0
-0.035190 0.030138 0
-0.042563 0.028767 0
-0.049614 0.026066 0
-0.056097 0.022288 0
-0.061815 0.017717 0
-0.066616 0.012639 0
-0.070399 0.007319 0
-0.073104 0.001988 0
-0.074711 -0.003162 0
-0.075236 -0.007981 0
-0.074716 -0.012353 0
-0.073210 -0.016188 0
-0.070798 -0.019426 0
-0.067571 -0.022027 0
-0.063634 -0.023972 0
-0.059102 -0.025264 0
-0.054095 -0.025919 0
-0.048739 -0.025972 0
-0.043158 -0.025469 0
-0.037475 -0.024468 0
-0.031805 -0.023034 0
-0.026257 -0.021238 0
-0.020926 -0.019154 0
-0.015897 -0.016855 0
-0.011240 -0.014410 0
-0.007009 -0.011886 0
-0.003248 -0.009340 0
0.000014 -0.006820 0
0.002764 -0.004371 0
0.004998 -0.002028 0
0.006723 0.000184 0
0.007952 0.002240 0
0.008710 0.004117 0
0.009029 0.005799 0
0.008945 0.007265 0
0.008498 0.008482 0
0.007734 0.009409 0
0.006706 0.009983 0
0.005473 0.010122 0
0.004113 0.009724 0
0.002725 0.008662 0
0.001442 0.006793 0
0.000448 0.003960 0
0.000000 0.000000 0
0.000000 -0.000000 0
-0.001169 0.009393 0
-0.004303 0.017962 0
-0.009070 0.025358 0
-0.015150 0.031250 0
-0.022221 0.035380 0
-0.029954 0.037599 0
-0.038022 0.037889 0
-0.046112 0.036362 0
-0.053935 0.033238 0
-0.061243 0.028811 0
-0.067831 0.023414 0
-0.073539 0.017377 0
-0.078253 0.011011 0
-0.081899 0.004587 0
-0.084442 -0.001668 0
-0.085877 -0.007574 0
-0.086224 -0.012991 0
-0.085526 -0.017811 0
-0.083841 -0.021957 0
-0.081245 -0.025374 0
-0.077826 -0.028032 0
-0.073687 -0.029923 0
-0.068939 -0.031057 0
-0.063702 -0.031464 0
-0.058098 -0.031190 0
-0.052252 -0.030295 0
-0.046288 -0.028851 0
-0.040321 -0.026937 0
-0.034462 -0.024638 0
-0.028807 -0.022040 0
-0.023443 -0.019225 0
-0.018441 -0.016274 0
-0.013858 -0.013258 0
-0.009739 -0.010241 0
-0.006111 -0.007280 0
-0.002993 -0.004419 0
-0.000388 -0.001695 0
0.001707 0.000859 0
0.003304 0.003210 0
0.004425 0.005334 0
0.005101 0.007205 0
0.005367 0.008787 0
0.005263 0.010032 0
0.004835 0.010871 0
0.004135 0.011210 0
0.003232 0.010926 0
0.002215 0.009866 0
0.001208 0.007842 0
0.000387 0.004636 0
0.000000 0.000000 0
0.000000 -0.000000 0
-0.001225 0.011608 0
-0.004524 0.022035 0
-0.009557 0.030955 0
-0.015993 0.038044 0
-0.023501 0.043039 0
-0.031748 0.045793 0
-0.040404 0.046296 0
-0.049154 0.044680 0
-0.057711 0.041197 0
-0.065825 0.036183 0
-0.073286 0.030012 0
-0.079930 0.023061 0
-0.085631 0.015680 0
-0.090303 0.008178 0
-0.093890 0.000815 0
-0.096366 -0.006199 0
-0.097734 -0.012704 0
-0.098014 -0.018571 0
-0.097244 -0.023707 0
-0.095477 -0.028041 0
-0.092782 -0.031530 0
-0.089244 -0.034151 0
-0.084958 -0.035905 0
-0.080034 -0.036814 0
-0.074588 -0.036919 0
-0.068743 -0.036278 0
-0.062624 -0.034965 0
-0.056354 -0.033064 0
-0.050052 -0.030668 0
-0.043830 -0.027874 0
-0.037788 -0.024777 0
-0.032014 -0.021470 0
-0.026582 -0.018041 0
-0.021553 -0.014567 0
-0.016972 -0.011117 0
-0.012871 -0.007751 0
-0.009270 -0.004515 0
-0.006174 -0.001453 0
-0.003586 0.001399 0
-0.001499 0.004002 0
0.000106 0.006323 0
0.001255 0.008320 0
0.001980 0.009941 0
0.002318 0.011111 0
0.002309 0.011725 0
0.002010 0.011645 0
0.001495 0.010686 0
0.000872 0.008621 0
0.000298 0.005168 0
0.000000 0.000000 0
0.000000 -0.000000 0
-0.001263 0.013917 0
-0.004682 0.026295 0
-0.009916 0.036827 0
-0.016632 0.045194 0
-0.024498 0.051135 0
-0.033178 0.054501 0
-0.042347 0.055294 0
-0.051693 0.053669 0
-0.060933 0.049909 0
-0.069817 0.044387 0
-0.078137 0.037519 0
-0.085723 0.029722 0
-0.092441 0.021383 0
-0.098192 0.012845 0
-0.102902 0.004395 0
-0.106524 -0.003729 0
-0.109039 -0.011343 0
-0.110443 -0.018302 0
-0.110749 -0.024494 0
-0.109989 -0.029836 0
-0.108206 -0.034266 0
-0.105462 -0.037747 0
-0.101835 -0.040267 0
-0.097417 -0.041834 0
-0.092313 -0.042481 0
-0.086638 -0.042259 0
-0.080517 -0.041240 0
-0.074075 -0.039509 0
-0.067437 -0.037162 0
-0.060727 -0.034304 0
-0.054058 -0.031041 0
-0.047535 -0.027479 0
-0.041249 -0.023719 0
-0.035279 -0.019852 0
-0.029688 -0.015962 0
-0.024526 -0.012122 0
-0.019829 -0.008392 0
-0.015620 -0.004825 0
-0.011911 -0.001465 0
-0.008709 0.001642 0
-0.006016 0.004451 0
-0.003819 0.006913 0
-0.002100 0.008970 0
-0.000836 0.010542 0
0.000003 0.011517 0
0.000454 0.011740 0
0.000570 0.011004 0
0.000436 0.009039 0
0.000181 0.005508 0
0.000000 0.000000 0
0.000000 -0.000000 0
-0.001286 0.016290 0
-0.004785 0.030689 0
-0.010161 0.042906 0
-0.017086 0.052625 0
-0.025228 0.059585 0
-0.034261 0.063642 0
-0.043864 0.064811 0
-0.053732 0.063266 0
-0.063590 0.059322 0
-0.073192 0.053388 0
-0.082333 0.045918 0
-0.090841 0.037365 0
-0.098578 0.028148 0
-0.105431 0.018638 0
-0.111313 0.009148 0
-0.116155 -0.000062 0
-0.119911 -0.008785 0
-0.122553 -0.016861 0
-0.124072 -0.024161 0
-0.124470 -0.030585 0
-0.123767 -0.036057 0
-0.121998 -0.040522 0
-0.119216 -0.043950 0
-0.115492 -0.046336 0
-0.110916 -0.047697 0
-0.105590 -0.048073 0
-0.099631 -0.047528 0
-0.093163 -0.046144 0
-0.086316 -0.044016 0
-0.079218 -0.041253 0
-0.071998 -0.037969 0
-0.064773 -0.034279 0
-0.057654 -0.030297 0
-0.050736 -0.026128 0
-0.044103 -0.021870 0
-0.037824 -0.017610 0
-0.031954 -0.013422 0
-0.026534 -0.009371 0
-0.021594 -0.005511 0
-0.017154 -0.001893 0
-0.013229 0.001432 0
-0.009830 0.004405 0
-0.006961 0.006957 0
-0.004613 0.009007 0
-0.002775 0.010436 0
-0.001433 0.011077 0
-0.000558 0.010704 0
-0.000099 0.009010 0
0.000036 0.005605 0
0.000000 0.000000 0
0.000000 0.000000 0
-0.001296 0.018702 0
-0.004840 0.035170 0
-0.010305 0.049128 0
-0.017369 0.060261 0
-0.025712 0.068310 0
-0.035015 0.073136 0
-0.044967 0.074765 0
-0.055276 0.073395 0
-0.065673 0.069369 0
-0.075925 0.063131 0
-0.085828 0.055168 0
-0.095214 0.045966 0
-0.103939 0.035972 0
-0.111886 0.025579 0
-0.118952 0.015120 0
-0.125051 0.004869 0
-0.130109 -0.004945 0
-0.134075 -0.014140 0
-0.136911 -0.022577 0
-0.138595 -0.030141 0
-0.139116 -0.036738 0
-0.138482 -0.042299 0
-0.136719 -0.046772 0
-0.133872 -0.050134 0
-0.130008 -0.052383 0
-0.125213 -0.053544 0
-0.119591 -0.053667 0
-0.113258 -0.052824 0
-0.106344 -0.051107 0
-0.098983 -0.048622 0
-0.091310 -0.045486 0
-0.083458 -0.041823 0
-0.075551 -0.037756 0
-0.067705 -0.033402 0
-0.060024 -0.028874 0
-0.052597 -0.024271 0
-0.045500 -0.019682 0
-0.038795 -0.015185 0
-0.032531 -0.010845 0
-0.026748 -0.006723 0
-0.021476 -0.002873 0
-0.016743 0.000644 0
-0.012576 0.003752 0
-0.008995 0.006356 0
-0.006015 0.008338 0
-0.003644 0.009523 0
-0.001888 0.009670 0
-0.000734 0.008445 0
-0.000138 0.005409 0
0.000000 -0.000000 0
0.000000 0.000000 0
-0.001295 0.021130 0
-0.004852 0.039697 0
-0.010357 0.055435 0
-0.017498 0.068032 0
-0.025968 0.077231 0
-0.035459 0.082897 0
-0.045674 0.085071 0
-0.056334 0.083972 0
-0.067184 0.079971 0
-0.077999 0.073543 0
-0.088586 0.065207 0
-0.098779 0.055475 0
-0.108436 0.044820 0
-0.117433 0.033651 0
-0.125660 0.022313 0
-0.133015 0.011095 0
-0.139404 0.000239 0
-0.144744 -0.010059 0
-0.148969 -0.019642 0
-0.152033 -0.028381 0
-0.153895 -0.036169 0
-0.154535 -0.042919 0
-0.153946 -0.048560 0
-0.152146 -0.053047 0
-0.149174 -0.056356 0
-0.145093 -0.058491 0
-0.139987 -0.059483 0
-0.133964 -0.059390 0
-0.127144 -0.058291 0
-0.119662 -0.056287 0
-0.111658 -0.053495 0
-0.103276 -0.050039 0
-0.094654 -0.046049 0
-0.085928 -0.041655 0
-0.077219 -0.036978 0
-0.068639 -0.032134 0
-0.060286 -0.027225 0
-0.052245 -0.022340 0
-0.044587 -0.017558 0
-0.037374 -0.012948 0
-0.030659 -0.008572 0
-0.024486 -0.004496 0
-0.018902 -0.000791 0
-0.013956 0.002446 0
-0.009696 0.005085 0
-0.006168 0.006951 0
-0.003413 0.007793 0
-0.001466 0.007260 0
-0.000339 0.004871 0
0.000000 -0.000000 0
0.000000 0.000000 0
-0.001285 0.023554 0
-0.004828 0.044231 0
-0.010328 0.061774 0
-0.017490 0.075872 0
-0.026016 0.086271 0
-0.035615 0.092842 0
-0.046006 0.095640 0
-0.056924 0.094905 0
-0.068130 0.091035 0
-0.079412 0.084533 0
-0.090586 0.075948 0
-0.101494 0.065816 0
-0.111998 0.054627 0
-0.121973 0.042804 0
-0.131302 0.030701 0
-0.139874 0.018613 0
-0.147577 0.006784 0
-0.154304 -0.004575 0
-0.159957 -0.015288 0
-0.164462 -0.025215 0
-0.167752 -0.034236 0
-0.169775 -0.042248 0
-0.170494 -0.049161 0
-0.169894 -0.054906 0
-0.167982 -0.059436 0
-0.164793 -0.062731 0
-0.160388 -0.064796 0
-0.154855 -0.065667 0
-0.148303 -0.065409 0
-0.140860 -0.064108 0
-0.132668 -0.061873 0
-0.123877 -0.058827 0
-0.114640 -0.055104 0
-0.105105 -0.050838 0
-0.095416 -0.046162 0
-0.085705 -0.041203 0
-0.076095 -0.036076 0
-0.066693 -0.030884 0
-0.057596 -0.025716 0
-0.048890 -0.020652 0
-0.040650 -0.015761 0
-0.032949 -0.011112 0
-0.025856 -0.006778 0
-0.019442 -0.002850 0
-0.013790 0.000550 0
-0.008987 0.003240 0
-0.005125 0.004968 0
-0.002292 0.005371 0
-0.000569 0.003943 0
0.000000 -0.000000 0
0.000000 0.000000 0
-0.001267 0.025957 0
-0.004772 0.048740 0
-0.010230 0.068096 0
-0.017359 0.083720 0
-0.025877 0.095356 0
-0.035508 0.102888 0
-0.045988 0.106381 0
-0.057070 0.106097 0
-0.068531 0.102459 0
-0.080172 0.095998 0
-0.091824 0.087288 0
-0.103337 0.076887 0
-0.114579 0.065299 0
-0.125429 0.052955 0
-0.135769 0.040215 0
-0.145480 0.027371 0
-0.154441 0.014669 0
-0.162526 0.002321 0
-0.169610 -0.009483 0
-0.175582 -0.020586 0
-0.180351 -0.030856 0
-0.183836 -0.040177 0
-0.185967 -0.048442 0
-0.186696 -0.055559 0
-0.185996 -0.061456 0
-0.183869 -0.066084 0
-0.180345 -0.069421 0
-0.175486 -0.071475 0
-0.169384 -0.072286 0
-0.162155 -0.071922 0
-0.153937 -0.070477 0
-0.144880 -0.068067 0
-0.135148 -0.064822 0
-0.124903 -0.060879 0
-0.114307 -0.056378 0
-0.103516 -0.051455 0
-0.092673 -0.046237 0
-0.081913 -0.040838 0
-0.071359 -0.035361 0
-0.061121 -0.029894 0
-0.051303 -0.024513 0
-0.042005 -0.019290 0
-0.033324 -0.014297 0
-0.025363 -0.009619 0
-0.018235 -0.005370 0
-0.012067 -0.001715 0
-0.007005 0.001098 0
-0.003205 0.002704 0
-0.000824 0.002579 0
0.000000 -0.000000 0
0.000000 0.000000 0
-0.001242 0.028326 0
-0.004690 0.053195 0
-0.010073 0.074361 0
-0.017123 0.091519 0
-0.025573 0.104420 0
-0.035165 0.112954 0
-0.045651 0.117203 0
-0.056803 0.117447 0
-0.068413 0.114136 0
-0.080302 0.107826 0
-0.092311 0.099112 0
-0.104304 0.088571 0
-0.116158 0.076719 0
-0.127757 0.063994 0
-0.138987 0.050753 0
-0.149728 0.037285 0
-0.159851 0.023830 0
-0.169220 0.010594 0
-0.177693 -0.002232 0
-0.185120 -0.014474 0
-0.191381 -0.025983 0
-0.196370 -0.036631 0
-0.199986 -0.046300 0
-0.202145 -0.054877 0
-0.202786 -0.062264 0
-0.201873 -0.068382 0
-0.199400 -0.073178 0
-0.195400 -0.076628 0
-0.189936 -0.078740 0
-0.183106 -0.079555 0
-0.175037 -0.079148 0
-0.165878 -0.077616 0
-0.155795 -0.075081 0
-0.144962 -0.071678 0
-0.133559 -0.067550 0
-0.121761 -0.062838 0
-0.109738 -0.057678 0
-0.097650 -0.052198 0
-0.085647 -0.046508 0
-0.073868 -0.040707 0
-0.062446 -0.034877 0
-0.051509 -0.029091 0
-0.041188 -0.023420 0
-0.031617 -0.017938 0
-0.022947 -0.012746 0
-0.015350 -0.007990 0
-0.009023 -0.003894 0
-0.004191 -0.000810 0
-0.001101 0.000738 0
0.000000 -0.000000 0
0.000000 -0.000000 0
-0.001212 0.030647 0
-0.004587 0.057571 0
-0.009867 0.080529 0
-0.016798 0.099221 0
-0.025128 0.113400 0
-0.034615 0.122966 0
-0.045029 0.128018 0
-0.056158 0.128858 0
-0.067815 0.125958 0
-0.079835 0.119896 0
-0.092077 0.111290 0
-0.104415 0.100734 0
-0.116739 0.088752 0
-0.128942 0.075784 0
-0.140916 0.062185 0
-0.152545 0.048234 0
-0.163699 0.034162 0
-0.174238 0.020163 0
-0.184006 0.006417 0
-0.192837 -0.006897 0
-0.200567 -0.019607 0
-0.207063 -0.031573 0
-0.212197 -0.042666 0
-0.215855 -0.052759 0
-0.217936 -0.061729 0
-0.218366 -0.069471 0
-0.217101 -0.075894 0
-0.214133 -0.080940 0
-0.209495 -0.084579 0
-0.203258 -0.086820 0
-0.195529 -0.087705 0
-0.186447 -0.087310 0
-0.176178 -0.085738 0
-0.164903 -0.083114 0
-0.152817 -0.079579 0
-0.140114 -0.075275 0
-0.126988 -0.070348 0
-0.113628 -0.064930 0
-0.100212 -0.059144 0
-0.086910 -0.053095 0
-0.073885 -0.046872 0
-0.061298 -0.040549 0
-0.049311 -0.034190 0
-0.038097 -0.027859 0
-0.027844 -0.021637 0
-0.018772 -0.015640 0
-0.011135 -0.010061 0
-0.005230 -0.005217 0
-0.001397 -0.001612 0
0.000000 -0.000000 0
0.000000 -0.000000 0
-0.001179 0.032912 0
-0.004467 0.061849 0
-0.009622 0.086572 0
-0.016401 0.106781 0
-0.024566 0.122238 0
-0.033889 0.132855 0
-0.044157 0.138745 0
-0.055178 0.140233 0
-0.066780 0.137813 0
-0.078816 0.132087 0
-0.091161 0.123691 0
-0.103705 0.113233 0
-0.116348 0.101246 0
-0.128996 0.088171 0
-0.141550 0.074355 0
-0.153900 0.060068 0
-0.165924 0.045523 0
-0.177481 0.030901 0
-0.188410 0.016367 0
-0.198538 0.002087 0
-0.207675 -0.011757 0
-0.215640 -0.025002 0