# vtk DataFile Version 2.0
generated by CFD-lab course output (written by Tobias Neckel) 
ASCII

DATASET STRUCTURED_GRID
DIMENSIONS  51 51 1 
POINTS 2601 float

0.000000 0.000000 0
0.020000 0.000000 0
0.040000 0.000000 0
0.060000 0.000000 0
0.080000 0.000000 0
0.100000 0.000000 0
0.120000 0.000000 0
0.140000 0.000000 0
0.160000 0.000000 0
0.180000 0.000000 0
0.200000 0.000000 0
0.220000 0.000000 0
0.240000 0.000000 0
0.260000 0.000000 0
0.280000 0.000000 0
0.300000 0.000000 0
0.320000 0.000000 0
0.340000 0.000000 0
0.360000 0.000000 0
0.380000 0.000000 0
0.400000 0.000000 0
0.420000 0.000000 0
0.440000 0.000000 0
0.460000 0.000000 0
0.480000 0.000000 0
0.500000 0.000000 0
0.520000 0.000000 0
0.540000 0.000000 0
0.560000 0.000000 0
0.580000 0.000000 0
0.600000 0.000000 0
0.620000 0.000000 0
0.640000 0.000000 0
0.660000 0.000000 0
0.680000 0.000000 0
0.700000 0.000000 0
0.720000 0.000000 0
0.740000 0.000000 0
0.760000 0.000000 0
0.780000 0.000000 0
0.800000 0.000000 0
0.820000 0.000000 0
0.840000 0.000000 0
0.860000 0.000000 0
0.880000 0.000000 0
0.900000 0.000000 0
0.920000 0.000000 0
0.940000 0.000000 0
0.960000 0.000000 0
0.980000 0.000000 0
1.000000 0.000000 0
0.000000 0.020000 0
0.020000 0.020000 0
0.040000 0.020000 0
0.060000 0.020000 0
0.080000 0.020000 0
0.100000 0.020000 0
0.120000 0.020000 0
0.140000 0.020000 0
0.160000 0.020000 0
0.180000 0.020000 0
0.200000 0.020000 0
0.220000 0.020000 0
0.240000 0.020000 0
0.260000 0.020000 0
0.280000 0.020000 0
0.300000 0.020000 0
0.320000 0.020000 0
0.340000 0.020000 0
0.360000 0.020000 0
0.380000 0.020000 0
0.400000 0.020000 0
0.420000 0.020000 0
0.440000 0.020000 0
0.460000 0.020000 0
0.480000 0.020000 0
0.500000 0.020000 0
0.520000 0.020000 0
0.540000 0.020000 0
0.560000 0.020000 0
0.580000 0.020000 0
0.600000 0.020000 0
0.620000 0.020000 0
0.640000 0.020000 0
0.660000 0.020000 0
0.680000 0.020000 0
0.700000 0.020000 0
0.720000 0.020000 0
0.740000 0.020000 0
0.760000 0.020000 0
0.780000 0.020000 0
0.800000 0.020000 0
0.820000 0.020000 0
0.840000 0.020000 0
0.860000 0.020000 0
0.880000 0.020000 0
0.900000 0.020000 0
0.920000 0.020000 0
0.940000 0.020000 0
0.960000 0.020000 0
0.980000 0.020000 0
1.000000 0.020000 0
0.000000 0.040000 0
0.020000 0.040000 0
0.040000 0.040000 0
0.060000 0.040000 0
0.080000 0.040000 0
0.100000 0.040000 0
0.120000 0.040000 0
0.140000 0.040000 0
0.160000 0.040000 0
0.180000 0.040000 0
0.200000 0.040000 0
0.220000 0.040000 0
0.240000 0.040000 0
0.260000 0.040000 0
0.280000 0.040000 0
0.300000 0.040000 0
0.320000 0.040000 0
0.340000 0.040000 0
0.360000 0.040000 0
0.380000 0.040000 0
0.400000 0.040000 0
0.420000 0.040000 0
0.440000 0.040000 0
0.460000 0.040000 0
0.480000 0.040000 0
0.500000 0.040000 0
0.520000 0.040000 0
0.540000 0.040000 0
0.560000 0.040000 0
0.580000 0.040000 0
0.600000 0.040000 0
0.620000 0.040000 0
0.640000 0.040000 0
0.660000 0.040000 0
0.680000 0.040000 0
0.700000 0.040000 0
0.720000 0.040000 0
0.740000 0.040000 0
0.760000 0.040000 0
0.780000 0.040000 0
0.800000 0.040000 0
0.820000 0.040000 0
0.840000 0.040000 0
0.860000 0.040000 0
0.880000 0.040000 0
0.900000 0.040000 0
0.920000 0.040000 0
0.940000 0.040000 0
0.960000 0.040000 0
0.980000 0.040000 0
1.000000 0.040000 0
0.000000 0.060000 0
0.020000 0.060000 0
0.040000 0.060000 0
0.060000 0.060000 0
0.080000 0.060000 0
0.100000 0.060000 0
0.120000 0.060000 0
0.140000 0.060000 0
0.160000 0.060000 0
0.180000 0.060000 0
0.200000 0.060000 0
0.220000 0.060000 0
0.240000 0.060000 0
0.260000 0.060000 0
0.280000 0.060000 0
0.300000 0.060000 0
0.320000 0.060000 0
0.340000 0.060000 0
0.360000 0.060000 0
0.380000 0.060000 0
0.400000 0.060000 0
0.420000 0.060000 0
0.440000 0.060000 0
0.460000 0.060000 0
0.480000 0.060000 0
0.500000 0.060000 0
0.520000 0.060000 0
0.540000 0.060000 0
0.560000 0.060000 0
0.580000 0.060000 0
0.600000 0.060000 0
0.620000 0.060000 0
0.640000 0.060000 0
0.660000 0.060000 0
0.680000 0.060000 0
0.700000 0.060000 0
0.720000 0.060000 0
0.740000 0.060000 0
0.760000 0.060000 0
0.780000 0.060000 0
0.800000 0.060000 0
0.820000 0.060000 0
0.840000 0.060000 0
0.860000 0.060000 0
0.880000 0.060000 0
0.900000 0.060000 0
0.920000 0.060000 0
0.940000 0.060000 0
0.960000 0.060000 0
0.980000 0.060000 0
1.000000 0.060000 0
0.000000 0.080000 0
0.020000 0.080000 0
0.040000 0.080000 0
0.060000 0.080000 0
0.080000 0.080000 0
0.100000 0.080000 0
0.120000 0.080000 0
0.140000 0.080000 0
0.160000 0.080000 0
0.180000 0.080000 0
0.200000 0.080000 0
0.220000 0.080000 0
0.240000 0.080000 0
0.260000 0.080000 0
0.280000 0.080000 0
0.300000 0.080000 0
0.320000 0.080000 0
0.340000 0.080000 0
0.360000 0.080000 0
0.380000 0.080000 0
0.400000 0.080000 0
0.420000 0.080000 0
0.440000 0.080000 0
0.460000 0.080000 0
0.480000 0.080000 0
0.500000 0.080000 0
0.520000 0.080000 0
0.540000 0.080000 0
0.560000 0.080000 0
0.580000 0.080000 0
0.600000 0.080000 0
0.620000 0.080000 0
0.640000 0.080000 0
0.660000 0.080000 0
0.680000 0.080000 0
0.700000 0.080000 0
0.720000 0.080000 0
0.740000 0.080000 0
0.760000 0.080000 0
0.780000 0.080000 0
0.800000 0.080000 0
0.820000 0.080000 0
0.840000 0.080000 0
0.860000 0.080000 0
0.880000 0.080000 0
0.900000 0.080000 0
0.920000 0.080000 0
0.940000 0.080000 0
0.960000 0.080000 0
0.980000 0.080000 0
1.000000 0.080000 0
0.000000 0.100000 0
0.020000 0.100000 0
0.040000 0.100000 0
0.060000 0.100000 0
0.080000 0.100000 0
0.100000 0.100000 0
0.120000 0.100000 0
0.140000 0.100000 0
0.160000 0.100000 0
0.180000 0.100000 0
0.200000 0.100000 0
0.220000 0.100000 0
0.240000 0.100000 0
0.260000 0.100000 0
0.280000 0.100000 0
0.300000 0.100000 0
0.320000 0.100000 0
0.340000 0.100000 0
0.360000 0.100000 0
0.380000 0.100000 0
0.400000 0.100000 0
0.420000 0.100000 0
0.440000 0.100000 0
0.460000 0.100000 0
0.480000 0.100000 0
0.500000 0.100000 0
0.520000 0.100000 0
0.540000 0.100000 0
0.560000 0.100000 0
0.580000 0.100000 0
0.600000 0.100000 0
0.620000 0.100000 0
0.640000 0.100000 0
0.660000 0.100000 0
0.680000 0.100000 0
0.700000 0.100000 0
0.720000 0.100000 0
0.740000 0.100000 0
0.760000 0.100000 0
0.780000 0.100000 0
0.800000 0.100000 0
0.820000 0.100000 0
0.840000 0.100000 0
0.860000 0.100000 0
0.880000 0.100000 0
0.900000 0.100000 0
0.920000 0.100000 0
0.940000 0.100000 0
0.960000 0.100000 0
0.980000 0.100000 0
1.000000 0.100000 0
0.000000 0.120000 0
0.020000 0.120000 0
0.040000 0.120000 0
0.060000 0.120000 0
0.080000 0.120000 0
0.100000 0.120000 0
0.120000 0.120000 0
0.140000 0.120000 0
0.160000 0.120000 0
0.180000 0.120000 0
0.200000 0.120000 0
0.220000 0.120000 0
0.240000 0.120000 0
0.260000 0.120000 0
0.280000 0.120000 0
0.300000 0.120000 0
0.320000 0.120000 0
0.340000 0.120000 0
0.360000 0.120000 0
0.380000 0.120000 0
0.400000 0.120000 0
0.420000 0.120000 0
0.440000 0.120000 0
0.460000 0.120000 0
0.480000 0.120000 0
0.500000 0.120000 0
0.520000 0.120000 0
0.540000 0.120000 0
0.560000 0.120000 0
0.580000 0.120000 0
0.600000 0.120000 0
0.620000 0.120000 0
0.640000 0.120000 0
0.660000 0.120000 0
0.680000 0.120000 0
0.700000 0.120000 0
0.720000 0.120000 0
0.740000 0.120000 0
0.760000 0.120000 0
0.780000 0.120000 0
0.800000 0.120000 0
0.820000 0.120000 0
0.840000 0.120000 0
0.860000 0.120000 0
0.880000 0.120000 0
0.900000 0.120000 0
0.920000 0.120000 0
0.940000 0.120000 0
0.960000 0.120000 0
0.980000 0.120000 0
1.000000 0.120000 0
0.000000 0.140000 0
0.020000 0.140000 0
0.040000 0.140000 0
0.060000 0.140000 0
0.080000 0.140000 0
0.100000 0.140000 0
0.120000 0.140000 0
0.140000 0.140000 0
0.160000 0.140000 0
0.180000 0.140000 0
0.200000 0.140000 0
0.220000 0.140000 0
0.240000 0.140000 0
0.260000 0.140000 0
0.280000 0.140000 0
0.300000 0.140000 0
0.320000 0.140000 0
0.340000 0.140000 0
0.360000 0.140000 0
0.380000 0.140000 0
0.400000 0.140000 0
0.420000 0.140000 0
0.440000 0.140000 0
0.460000 0.140000 0
0.480000 0.140000 0
0.500000 0.140000 0
0.520000 0.140000 0
0.540000 0.140000 0
0.560000 0.140000 0
0.580000 0.140000 0
0.600000 0.140000 0
0.620000 0.140000 0
0.640000 0.140000 0
0.660000 0.140000 0
0.680000 0.140000 0
0.700000 0.140000 0
0.720000 0.140000 0
0.740000 0.140000 0
0.760000 0.140000 0
0.780000 0.140000 0
0.800000 0.140000 0
0.820000 0.140000 0
0.840000 0.140000 0
0.860000 0.140000 0
0.880000 0.140000 0
0.900000 0.140000 0
0.920000 0.140000 0
0.940000 0.140000 0
0.960000 0.140000 0
0.980000 0.140000 0
1.000000 0.140000 0
0.000000 0.160000 0
0.020000 0.160000 0
0.040000 0.160000 0
0.060000 0.160000 0
0.080000 0.160000 0
0.100000 0.160000 0
0.120000 0.160000 0
0.140000 0.160000 0
0.160000 0.160000 0
0.180000 0.160000 0
0.200000 0.160000 0
0.220000 0.160000 0
0.240000 0.160000 0
0.260000 0.160000 0
0.280000 0.160000 0
0.300000 0.160000 0
0.320000 0.160000 0
0.340000 0.160000 0
0.360000 0.160000 0
0.380000 0.160000 0
0.400000 0.160000 0
0.420000 0.160000 0
0.440000 0.160000 0
0.460000 0.160000 0
0.480000 0.160000 0
0.500000 0.160000 0
0.520000 0.160000 0
0.540000 0.160000 0
0.560000 0.160000 0
0.580000 0.160000 0
0.600000 0.160000 0
0.620000 0.160000 0
0.640000 0.160000 0
0.660000 0.160000 0
0.680000 0.160000 0
0.700000 0.160000 0
0.720000 0.160000 0
0.740000 0.160000 0
0.760000 0.160000 0
0.780000 0.160000 0
0.800000 0.160000 0
0.820000 0.160000 0
0.840000 0.160000 0
0.860000 0.160000 0
0.880000 0.160000 0
0.900000 0.160000 0
0.920000 0.160000 0
0.940000 0.160000 0
0.960000 0.160000 0
0.980000 0.160000 0
1.000000 0.160000 0
0.000000 0.180000 0
0.020000 0.180000 0
0.040000 0.180000 0
0.060000 0.180000 0
0.080000 0.180000 0
0.100000 0.180000 0
0.120000 0.180000 0
0.140000 0.180000 0
0.160000 0.180000 0
0.180000 0.180000 0
0.200000 0.180000 0
0.220000 0.180000 0
0.240000 0.180000 0
0.260000 0.180000 0
0.280000 0.180000 0
0.300000 0.180000 0
0.320000 0.180000 0
0.340000 0.180000 0
0.360000 0.180000 0
0.380000 0.180000 0
0.400000 0.180000 0
0.420000 0.180000 0
0.440000 0.180000 0
0.460000 0.180000 0
0.480000 0.180000 0
0.500000 0.180000 0
0.520000 0.180000 0
0.540000 0.180000 0
0.560000 0.180000 0
0.580000 0.180000 0
0.600000 0.180000 0
0.620000 0.180000 0
[...]
POINT_DATA 2601 

VECTORS velocity float
0.000000 0.000000 0
0.000000 0.000000 0
-0.000000 0.000000 0
-0.000000 0.000000 0
-0.000000 0.000000 0
-0.000001 0.000000 0
-0.000001 0.000000 0
-0.000002 0.000000 0
-0.000002 0.000000 0
-0.000002 0.000000 0
-0.000002 0.000000 0
-0.000002 0.000000 0
-0.000002 0.000000 0
-0.000002 0.000000 0
-0.000001 0.000000 0
-0.000001 0.000000 0
0.000000 0.000000 0
0.000001 0.000000 0
0.000001 0.000000 0
0.000002 0.000000 0
0.000002 0.000000 0
0.000003 0.000000 0
0.000004 0.000000 0
0.000004 0.000000 0
0.000004 0.000000 0
0.000005 0.000000 0
0.000005 0.000000 0
0.000005 0.000000 0
0.000005 0.000000 0
0.000005 0.000000 0
0.000005 0.000000 0
0.000005 0.000000 0
0.000005 0.000000 0
0.000004 0.000000 0
0.000004 0.000000 0
0.000004 0.000000 0
0.000004 0.000000 0
0.000003 0.000000 0
0.000003 0.000000 0
0.000002 0.000000 0
0.000002 0.000000 0
0.000002 0.000000 0
0.000001 0.000000 0
0.000001 0.000000 0
0.000001 0.000000 0
0.000001 0.000000 0
0.000000 0.000000 0
0.000000 0.000000 0
0.000000 0.000000 0
-0.000000 0.000000 0
0.000000 0.000000 0
0.000000 -0.000000 0
-0.000002 0.000003 0
-0.000237 0.000164 0
-0.000767 0.000348 0
-0.001573 0.000505 0
-0.002601 0.000621 0
-0.003781 0.000689 0
-0.005037 0.000711 0
-0.006293 0.000688 0
-0.007478 0.000626 0
-0.008532 0.000531 0
-0.009402 0.000412 0
-0.010053 0.000275 0
-0.010460 0.000130 0
-0.010612 -0.000017 0
-0.010510 -0.000159 0
-0.010166 -0.000290 0
-0.009598 -0.000407 0
-0.008834 -0.000506 0
-0.007903 -0.000585 0
-0.006842 -0.000643 0
-0.005684 -0.000681 0
-0.004466 -0.000699 0
-0.003220 -0.000699 0
-0.001980 -0.000682 0
-0.000773 -0.000650 0
0.000375 -0.000606 0
0.001443 -0.000552 0
0.002414 -0.000490 0
0.003275 -0.000423 0
0.004016 -0.000352 0
0.004631 -0.000280 0
0.005117 -0.000208 0
0.005475 -0.000136 0
0.005706 -0.000067 0
0.005814 -0.000000 0
0.005804 0.000063 0
0.005681 0.000122 0
0.005455 0.000177 0
0.005132 0.000228 0
0.004721 0.000273 0
0.004234 0.000313 0
0.003682 0.000344 0
0.003082 0.000366 0
0.002453 0.000374 0
0.001823 0.000364 0
0.001224 0.000331 0
0.000699 0.000268 0
0.000294 0.000171 0
0.000055 0.000055 0
0.000000 -0.000000 0
0.000000 0.000000 0
-0.000156 0.000236 0
-0.000749 0.000764 0
-0.001816 0.001335 0
-0.003322 0.001834 0
-0.005185 0.002208 0
-0.007297 0.002435 0
-0.009535 0.002511 0
-0.011778 0.002440 0
-0.013906 0.002238 0
-0.015816 0.001923 0
-0.017421 0.001521 0
-0.018655 0.001057 0
-0.019472 0.000558 0
-0.019849 0.000050 0
-0.019784 -0.000447 0
-0.019291 -0.000913 0
-0.018398 -0.001333 0
-0.017147 -0.001695 0
-0.015589 -0.001992 0
-0.013780 -0.002220 0
-0.011780 -0.002377 0
-0.009650 -0.002464 0
-0.007450 -0.002486 0
-0.005236 -0.002448 0
-0.003061 -0.002356 0
-0.000970 -0.002217 0
0.000996 -0.002039 0
0.002803 -0.001831 0
0.004424 -0.001601 0
0.005841 -0.001356 0
0.007039 -0.001102 0
0.008011 -0.000844 0
0.008754 -0.000589 0
0.009270 -0.000338 0
0.009564 -0.000097 0
0.009643 0.000133 0
0.009520 0.000349 0
0.009206 0.000550 0
0.008716 0.000734 0
0.008067 0.000898 0
0.007278 0.001040 0
0.006372 0.001152 0
0.005379 0.001229 0
0.004332 0.001259 0
0.003277 0.001229 0
0.002268 0.001125 0
0.001367 0.000931 0
0.000645 0.000644 0
0.000171 0.000294 0
0.000000 0.000000 0
0.000000 0.000000 0
-0.000328 0.000751 0
-0.001298 0.001824 0
-0.002885 0.002921 0
-0.005020 0.003875 0
-0.007600 0.004595 0
-0.010491 0.005039 0
-0.013542 0.005191 0
-0.016602 0.005058 0
-0.019521 0.004664 0
-0.022167 0.004046 0
-0.024425 0.003250 0
-0.026206 0.002325 0
-0.027449 0.001324 0
-0.028118 0.000295 0
-0.028203 -0.000718 0
-0.027716 -0.001677 0
-0.026689 -0.002551 0
-0.025172 -0.003315 0
-0.023225 -0.003952 0
-0.020918 -0.004452 0
-0.018329 -0.004811 0
-0.015535 -0.005029 0
-0.012615 -0.005113 0
-0.009645 -0.005071 0
-0.006695 -0.004916 0
-0.003832 -0.004663 0
-0.001109 -0.004325 0
0.001423 -0.003918 0
0.003723 -0.003461 0
0.005762 -0.002967 0
0.007517 -0.002450 0
0.008975 -0.001923 0
0.010128 -0.001395 0
0.010976 -0.000876 0
0.011525 -0.000374 0
0.011782 0.000107 0
0.011762 0.000560 0
0.011481 0.000982 0
0.010958 0.001367 0
0.010216 0.001712 0
0.009282 0.002007 0
0.008187 0.002243 0
0.006967 0.002406 0
0.005669 0.002475 0
0.004346 0.002429 0
0.003064 0.002242 0
0.001899 0.001891 0
0.000937 0.001367 0
0.000269 0.000700 0
0.000000 0.000000 0
0.000000 0.000000 0
-0.000480 0.001533 0
-0.001798 0.003320 0
-0.003862 0.005057 0
-0.006565 0.006549 0
-0.009779 0.007678 0
-0.013349 0.008377 0
-0.017107 0.008622 0
-0.020879 0.008419 0
-0.024496 0.007802 0
-0.027806 0.006826 0
-0.030674 0.005560 0
-0.032995 0.004081 0
-0.034692 0.002470 0
-0.035716 0.000803 0
-0.036051 -0.000849 0
-0.035703 -0.002426 0
-0.034703 -0.003877 0
-0.033100 -0.005160 0
-0.030960 -0.006246 0
-0.028361 -0.007116 0
-0.025389 -0.007761 0
-0.022133 -0.008178 0
-0.018687 -0.008376 0
-0.015140 -0.008367 0
-0.011577 -0.008169 0
-0.008080 -0.007803 0
-0.004719 -0.007293 0
-0.001555 -0.006664 0
0.001359 -0.005941 0
0.003979 -0.005150 0
0.006274 -0.004314 0
0.008222 -0.003455 0
0.009812 -0.002591 0
0.011039 -0.001735 0
0.011905 -0.000903 0
0.012420 -0.000105 0
0.012597 0.000650 0
0.012455 0.001354 0
0.012017 0.001998 0
0.011311 0.002574 0
0.010366 0.003069 0
0.009219 0.003467 0
0.007913 0.003747 0
0.006499 0.003880 0
0.005036 0.003834 0
0.003597 0.003571 0
0.002265 0.003058 0
0.001140 0.002274 0
0.000336 0.001231 0
0.000000 0.000000 0
0.000000 0.000001 0
-0.000605 0.002548 0
-0.002225 0.005205 0
-0.004712 0.007688 0
-0.007923 0.009791 0
-0.011704 0.011378 0
-0.015882 0.012366 0
-0.020274 0.012720 0
-0.024692 0.012448 0
-0.028953 0.011591 0
-0.032888 0.010224 0
-0.036351 0.008439 0
-0.039222 0.006342 0
-0.041411 0.004045 0
-0.042858 0.001654 0
-0.043537 -0.000732 0
-0.043447 -0.003026 0
-0.042613 -0.005154 0
-0.041082 -0.007058 0
-0.038919 -0.008691 0
-0.036203 -0.010024 0
-0.033024 -0.011039 0
-0.029480 -0.011731 0
-0.025672 -0.012107 0
-0.021699 -0.012180 0
-0.017660 -0.011976 0
-0.013646 -0.011522 0
-0.009742 -0.010850 0
-0.006023 -0.009996 0
-0.002552 -0.008995 0
0.000619 -0.007882 0
0.003445 -0.006693 0
0.005895 -0.005461 0
0.007950 -0.004211 0
0.009601 -0.002969 0
0.010848 -0.001755 0
0.011696 -0.000585 0
0.012159 0.000525 0
0.012255 0.001561 0
0.012010 0.002512 0
0.011453 0.003363 0
0.010617 0.004099 0
0.009541 0.004696 0
0.008270 0.005126 0
0.006858 0.005353 0
0.005368 0.005331 0
0.003874 0.005013 0
0.002467 0.004348 0
0.001255 0.003296 0
0.000374 0.001840 0
0.000000 0.000001 0
0.000000 0.000001 0
-0.000704 0.003757 0
-0.002579 0.007427 0
-0.005434 0.010755 0
-0.009095 0.013541 0
-0.013385 0.015636 0
-0.018114 0.016947 0
-0.023087 0.017431 0
-0.028104 0.017097 0
-0.032974 0.015998 0
-0.037517 0.014224 0
-0.041576 0.011894 0
-0.045019 0.009140 0
-0.047746 0.006106 0
-0.049687 0.002929 0
-0.050801 -0.000261 0
-0.051081 -0.003351 0
-0.050544 -0.006242 0
-0.049228 -0.008854 0
-0.047195 -0.011126 0
-0.044522 -0.013011 0
-0.041296 -0.014483 0
-0.037619 -0.015531 0
-0.033595 -0.016158 0
-0.029331 -0.016379 0
-0.024935 -0.016222 0
-0.020507 -0.015720 0
-0.016145 -0.014917 0
-0.011933 -0.013855 0
-0.007948 -0.012582 0
-0.004253 -0.011146 0
-0.000901 -0.009591 0
0.002067 -0.007961 0
0.004623 -0.006297 0
0.006748 -0.004633 0
0.008438 -0.002997 0
0.009695 -0.001415 0
0.010530 0.000091 0
0.010961 0.001502 0
0.011011 0.002801 0
0.010711 0.003968 0
0.010094 0.004981 0
0.009202 0.005814 0
0.008079 0.006430 0
0.006778 0.006783 0
0.005364 0.006819 0
0.003913 0.006473 0
0.002516 0.005677 0
0.001292 0.004366 0
0.000388 0.002486 0
0.000000 0.000001 0
0.000000 0.000002 0
-0.000783 0.005126 0
-0.002869 0.009935 0
-0.006040 0.014204 0
-0.010095 0.017742 0
-0.014839 0.020397 0
-0.020069 0.022068 0
-0.025578 0.022711 0
-0.031160 0.022335 0
-0.036615 0.021004 0
-0.041757 0.018825 0
-0.046420 0.015941 0
-0.050465 0.012512 0
-0.053780 0.008712 0
-0.056284 0.004709 0
-0.057927 0.000663 0
-0.058686 -0.003283 0
-0.058570 -0.007007 0
-0.057609 -0.010406 0
-0.055853 -0.013398 0
-0.053372 -0.015924 0
-0.050251 -0.017942 0
-0.046588 -0.019433 0
-0.042487 -0.020394 0
-0.038060 -0.020841 0
-0.033419 -0.020800 0
-0.028673 -0.020312 0
-0.023928 -0.019425 0
-0.019281 -0.018193 0
-0.014819 -0.016675 0
-0.010617 -0.014929 0
-0.006740 -0.013014 0
-0.003236 -0.010984 0
-0.000145 -0.008892 0
0.002508 -0.006784 0
0.004708 -0.004702 0
0.006453 -0.002677 0
0.007748 -0.000741 0
0.008609 0.001080 0
0.009056 0.002762 0
0.009118 0.004280 0
0.008830 0.005608 0
0.008230 0.006712 0
0.007362 0.007550 0
0.006279 0.008067 0
0.005043 0.008197 0
0.003727 0.007861 0
0.002425 0.006968 0
0.001258 0.005424 0
0.000382 0.003132 0
0.000000 0.000001 0
0.000000 0.000002 0
-0.000846 0.006625 0
-0.003105 0.012683 0
-0.006543 0.017981 0
-0.010940 0.022340 0
-0.016087 0.025609 0
-0.021769 0.027685 0
-0.027773 0.028522 0
-0.033887 0.028134 0
-0.039907 0.026595 0
-0.045641 0.024029 0
-0.050919 0.020601 0
-0.055594 0.016500 0
-0.059546 0.011924 0
-0.062684 0.007075 0
-0.064943 0.002141 0
-0.066291 -0.002707 0
-0.066719 -0.007320 0
-0.066247 -0.011572 0
-0.064913 -0.015363 0
-0.062775 -0.018612 0
-0.059910 -0.021267 0
-0.056407 -0.023295 0
-0.052370 -0.024685 0
-0.047908 -0.025447 0
-0.043135 -0.025609 0
-0.038167 -0.025211 0
-0.033117 -0.024309 0
-0.028092 -0.022964 0
-0.023189 -0.021246 0
-0.018497 -0.019225 0
-0.014090 -0.016972 0
-0.010031 -0.014556 0
-0.006367 -0.012041 0
-0.003134 -0.009486 0
-0.000356 -0.006942 0
0.001957 -0.004455 0
0.003804 -0.002065 0
0.005195 0.000195 0
0.006144 0.002292 0
0.006678 0.004194 0
0.006828 0.005870 0
0.006631 0.007282 0
0.006128 0.008380 0
0.005369 0.009103 0
0.004411 0.009371 0
0.003325 0.009090 0
0.002202 0.008146 0
0.001161 0.006410 0
0.000358 0.003745 0
0.000000 0.000001 0
0.000000 0.000003 0
-0.000895 0.008231 0
-0.003296 0.015631 0
-0.006956 0.022039 0
-0.011647 0.027286 0
-0.017146 0.031225 0
-0.023234 0.033755 0
-0.029692 0.034829 0
-0.036304 0.034468 0
-0.042865 0.032757 0
-0.049182 0.029838 0
-0.055082 0.025894 0
-0.060411 0.021140 0
-0.065045 0.015801 0
-0.068879 0.010105 0
-0.071840 0.004270 0
-0.073878 -0.001507 0
-0.074972 -0.007051 0
-0.075123 -0.012213 0
-0.074354 -0.016871 0
-0.072711 -0.020927 0
-0.070255 -0.024309 0
-0.067067 -0.026972 0
-0.063240 -0.028894 0
-0.058879 -0.030076 0
-0.054097 -0.030541 0
-0.049012 -0.030330 0
-0.043742 -0.029500 0
-0.038402 -0.028121 0
-0.033100 -0.026269 0
-0.027937 -0.024028 0
-0.023000 -0.021480 0
-0.018364 -0.018707 0
-0.014089 -0.015789 0
-0.010222 -0.012796 0
-0.006797 -0.009793 0
-0.003834 -0.006837 0
-0.001342 -0.003978 0
0.000681 -0.001259 0
0.002244 0.001279 0
0.003364 0.003596 0
0.004069 0.005655 0
0.004390 0.007412 0
0.004366 0.008811 0
0.004041 0.009785 0
0.003467 0.010242 0
0.002708 0.010070 0
0.001848 0.009133 0
0.001001 0.007269 0
0.000317 0.004293 0
0.000000 0.000001 0
0.000000 0.000003 0
-0.000933 0.009921 0
-0.003447 0.018744 0
-0.007290 0.026332 0
-0.012227 0.032530 0
-0.018031 0.037196 0
-0.024477 0.040231 0
-0.031345 0.041592 0
-0.038419 0.041307 0
-0.045493 0.039472 0
-0.052377 0.036246 0
-0.058896 0.031831 0
-0.064896 0.026463 0
-0.070244 0.020392 0
-0.074831 0.013870 0
-0.078568 0.007139 0
-0.081393 0.000425 0
-0.083265 -0.006075 0
-0.084169 -0.012190 0
-0.084110 -0.017774 0
-0.083114 -0.022711 0
-0.081228 -0.026911 0
-0.078513 -0.030311 0
-0.075053 -0.032874 0
-0.070941 -0.034591 0
-0.066286 -0.035476 0
-0.061203 -0.035566 0
-0.055813 -0.034919 0
-0.050237 -0.033605 0
-0.044592 -0.031710 0
-0.038989 -0.029325 0
-0.033529 -0.026545 0
-0.028300 -0.023467 0
-0.023379 -0.020183 0
-0.018824 -0.016778 0
-0.014682 -0.013330 0
-0.010985 -0.009911 0
-0.007753 -0.006580 0
-0.004993 -0.003391 0
-0.002703 -0.000392 0
-0.000875 0.002369 0
0.000508 0.004844 0
0.001472 0.006984 0
0.002049 0.008729 0
0.002276 0.010002 0
0.002197 0.010705 0
0.001867 0.010709 0
0.001360 0.009853 0
0.000777 0.007942 0
0.000259 0.004746 0
0.000000 0.000001 0
0.000000 0.000004 0
-0.000961 0.011677 0
-0.003563 0.021988 0
-0.007553 0.030819 0
-0.012694 0.038026 0
-0.018754 0.043475 0
-0.025511 0.047068 0
-0.032742 0.048770 0
-0.040235 0.048616 0
-0.047788 0.046715 0
-0.055213 0.043240 0
-0.062338 0.038413 0
-0.069010 0.032488 0
-0.075094 0.025736 0
-0.080472 0.018429 0
-0.085048 0.010832 0
-0.088742 0.003189 0
-0.091496 -0.004276 0
-0.093276 -0.011368 0
-0.094065 -0.017925 0
-0.093870 -0.023809 0
-0.092714 -0.028910 0
-0.090641 -0.033147 0
-0.087715 -0.036466 0
-0.084016 -0.038842 0
-0.079641 -0.040279 0
-0.074699 -0.040803 0
-0.069309 -0.040467 0
-0.063594 -0.039342 0
-0.057679 -0.037517 0
-0.051684 -0.035091 0
-0.045724 -0.032168 0
-0.039901 -0.028858 0
-0.034306 -0.025265 0
-0.029015 -0.021492 0
-0.024090 -0.017631 0
-0.019576 -0.013766 0
-0.015507 -0.009970 0
-0.011902 -0.006309 0
-0.008769 -0.002840 0
-0.006108 0.000385 0
-0.003915 0.003308 0
-0.002175 0.005870 0
-0.000867 0.008008 0
0.000039 0.009637 0
0.000575 0.010651 0
0.000784 0.010907 0
0.000725 0.010223 0
0.000484 0.008369 0
0.000183 0.005070 0
0.000000 0.000001 0
0.000000 0.000004 0
-0.000982 0.013483 0
-0.003649 0.025335 0
-0.007753 0.035462 0
-0.013055 0.043731 0
-0.019327 0.050013 0
-0.026344 0.054218 0
-0.033889 0.056316 0
-0.041754 0.056353 0
-0.049742 0.054450 0
-0.057672 0.050796 0
-0.065378 0.045628 0
-0.072709 0.039218 0
-0.079530 0.031854 0
-0.085722 0.023824 0
-0.091178 0.015409 0
-0.095807 0.006873 0
-0.099532 -0.001542 0
-0.102296 -0.009621 0
-0.104063 -0.017180 0
-0.104814 -0.024063 0
-0.104550 -0.030140 0
-0.103289 -0.035310 0
-0.101074 -0.039499 0
-0.097963 -0.042665 0
-0.094039 -0.044793 0
-0.089397 -0.045899 0
-0.084150 -0.046024 0
-0.078419 -0.045235 0
-0.072332 -0.043620 0
-0.066018 -0.041280 0
-0.059601 -0.038329 0
-0.053201 -0.034885 0
-0.046922 -0.031068 0
-0.040860 -0.026994 0
-0.035093 -0.022769 0
-0.029685 -0.018493 0
-0.024684 -0.014254 0
-0.020125 -0.010129 0
-0.016030 -0.006185 0
-0.012411 -0.002485 0
-0.009272 0.000911 0
-0.006616 0.003936 0
-0.004435 0.006514 0
-0.002714 0.008561 0
-0.001432 0.009960 0
-0.000564 0.010558 0
-0.000070 0.010153 0
0.000113 0.008485 0
0.000085 0.005229 0
0.000000 0.000001 0
0.000000 0.000005 0
-0.000995 0.015326 0
-0.003708 0.028759 0
-0.007895 0.040225 0
-0.013321 0.049600 0
-0.019758 0.056763 0
-0.026986 0.061630 0
-0.034793 0.064180 0
-0.042977 0.064469 0
-0.051350 0.062634 0
-0.059738 0.058875 0
-0.067984 0.053449 0
-0.075944 0.046640 0
-0.083487 0.038749 0
-0.090491 0.030077 0
-0.096847 0.020916 0
-0.102452 0.011543 0
-0.107215 0.002214 0
-0.111055 -0.006838 0
-0.113911 -0.015407 0
-0.115742 -0.023323 0
-0.116521 -0.030435 0
-0.116240 -0.036623 0
-0.114914 -0.041792 0
-0.112578 -0.045877 0
-0.109289 -0.048845 0
-0.105127 -0.050691 0
-0.100190 -0.051445 0
-0.094592 -0.051160 0
-0.088460 -0.049919 0
-0.081927 -0.047821 0
-0.075127 -0.044985 0
-0.068190 -0.041537 0
-0.061242 -0.037606 0
-0.054393 -0.033321 0
-0.047742 -0.028806 0
-0.041373 -0.024175 0
-0.035353 -0.019530 0
-0.029735 -0.014963 0
-0.024559 -0.010553 0
-0.019852 -0.006372 0
-0.015634 -0.002487 0
-0.011917 0.001033 0
-0.008714 0.004106 0
-0.006030 0.006635 0
-0.003863 0.008502 0
-0.002207 0.009545 0
-0.001045 0.009545 0
-0.000344 0.008214 0
-0.000036 0.005183 0
0.000000 0.000001 0
0.000000 0.000005 0
-0.001001 0.017191 0
-0.003743 0.032236 0
-0.007986 0.045074 0
-0.013498 0.055593 0
-0.020057 0.063678 0
-0.027448 0.069253 0
-0.035463 0.072307 0
-0.043910 0.072910 0
-0.052609 0.071211 0
-0.061398 0.067430 0
-0.070131 0.061833 0
-0.078672 0.054720 0
-0.086898 0.046401 0
-0.094691 0.037185 0
-0.101940 0.027370 0
-0.108535 0.017240 0
-0.114372 0.007060 0
-0.119353 -0.002925 0
-0.123389 -0.012493 0
-0.126413 -0.021453 0
-0.128371 -0.029641 0
-0.129228 -0.036916 0
-0.128966 -0.043161 0
-0.127590 -0.048290 0
-0.125131 -0.052244 0
-0.121642 -0.054998 0
-0.117203 -0.056559 0
-0.111914 -0.056965 0
-0.105893 -0.056285 0
-0.099273 -0.054614 0
-0.092193 -0.052065 0
-0.084795 -0.048770 0
-0.077218 -0.044866 0
-0.069592 -0.040493 0
-0.062038 -0.035789 0
-0.054660 -0.030882 0
-0.047549 -0.025892 0
-0.040778 -0.020922 0
-0.034409 -0.016067 0
-0.028489 -0.011410 0
-0.023054 -0.007024 0
-0.018136 -0.002985 0
-0.013762 0.000628 0
-0.009961 0.003711 0
-0.006759 0.006137 0
-0.004174 0.007740 0
-0.002220 0.008291 0
-0.000900 0.007476 0
-0.000186 0.004885 0
0.000000 0.000001 0
0.000000 0.000006 0
-0.001002 0.019068 0
-0.003757 0.035744 0
-0.008030 0.049979 0
-0.013596 0.061671 0
-0.020236 0.070712 0
-0.027740 0.077035 0
-0.035909 0.080641 0
-0.044559 0.081615 0
-0.053521 0.080122 0
-0.062646 0.076397 0
-0.071798 0.070722 0
-0.080857 0.063407 0
-0.089708 0.054768 0
-0.098241 0.045119 0
-0.106348 0.034761 0
-0.113917 0.023976 0
-0.120834 0.013031 0
-0.126986 0.002179 0
-0.132263 -0.008348 0
-0.136565 -0.018340 0
-0.139815 -0.027620 0
-0.141946 -0.036028 0
-0.142907 -0.043430 0
-0.142672 -0.049712 0
-0.141236 -0.054793 0
-0.138623 -0.058619 0
-0.134884 -0.061173 0
-0.130100 -0.062470 0
-0.124374 -0.062559 0
-0.117831 -0.061522 0
-0.110609 -0.059463 0
-0.102858 -0.056512 0
-0.094728 -0.052808 0
-0.086369 -0.048501 0
-0.077921 -0.043738 0
-0.069513 -0.038664 0
-0.061260 -0.033412 0
-0.053260 -0.028103 0
-0.045598 -0.022843 0
-0.038346 -0.017727 0
-0.031564 -0.012839 0
-0.025305 -0.008259 0
-0.019616 -0.004070 0
-0.014548 -0.000368 0
-0.010155 0.002715 0
-0.006493 0.005007 0
-0.003615 0.006272 0
-0.001565 0.006180 0
-0.000366 0.004284 0
0.000000 0.000000 0
0.000000 0.000006 0
-0.000999 0.020948 0
-0.003753 0.039264 0
-0.008035 0.054912 0
-0.013623 0.067798 0
-0.020306 0.077822 0
-0.027878 0.084926 0
-0.036147 0.089125 0
-0.044938 0.090521 0
-0.054095 0.089298 0
-0.063482 0.085707 0
-0.072978 0.080044 0
-0.082476 0.072630 0
-0.091875 0.063786 0
-0.101077 0.053825 0
-0.109979 0.043046 0
-0.118471 0.031726 0
-0.126438 0.020129 0
-0.133756 0.008503 0
-0.140296 -0.002914 0
-0.145930 -0.013900 0
-0.150552 -0.024261 0
-0.154064 -0.033824 0
-0.156385 -0.042435 0
-0.157451 -0.049962 0
-0.157221 -0.056293 0
-0.155684 -0.061349 0
-0.152856 -0.065081 0
-0.148788 -0.067475 0
-0.143562 -0.068555 0
-0.137286 -0.068379 0
-0.130092 -0.067038 0
-0.122131 -0.064651 0
-0.113562 -0.061354 0
-0.104548 -0.057300 0
-0.095251 -0.052645 0
-0.085823 -0.047544 0
-0.076405 -0.042145 0
-0.067123 -0.036584 0
-0.058091 -0.030981 0
-0.049407 -0.025444 0
-0.041158 -0.020066 0
-0.033423 -0.014933 0
-0.026278 -0.010129 0
-0.019800 -0.005751 0
-0.014071 -0.001918 0
-0.009186 0.001201 0
-0.005244 0.003362 0
-0.002347 0.004228 0
-0.000582 0.003321 0
0.000000 -0.000001 0
0.000000 0.000006 0
-0.000992 0.022821 0
-0.003734 0.042779 0
-0.008005 0.059849 0
-0.013590 0.073942 0
-0.020280 0.084966 0
-0.027876 0.092876 0
-0.036192 0.097701 0
-0.045064 0.099563 0
-0.054346 0.098666 0
-0.063918 0.095280 0
-0.073673 0.089716 0
-0.083520 0.082304 0
-0.093375 0.073369 0
-0.103152 0.063223 0
-0.112759 0.052155 0
-0.122096 0.040435 0
-0.131046 0.028316 0
-0.139482 0.016036 0
-0.147264 0.003827 0
-0.154243 -0.008085 0
-0.160278 -0.019486 0
-0.165243 -0.030195 0
-0.169026 -0.040043 0
-0.171526 -0.048876 0
-0.172665 -0.056560 0
-0.172389 -0.062985 0
-0.170676 -0.068068 0
-0.167541 -0.071764 0
-0.163033 -0.074062 0
-0.157237 -0.074991 0
-0.150269 -0.074618 0
-0.142274 -0.073042 0
-0.133414 -0.070390 0
-0.123862 -0.066811 0
-0.113797 -0.062464 0
-0.103396 -0.057511 0
-0.092825 -0.052112 0
-0.082241 -0.046416 0
-0.071787 -0.040559 0
-0.061594 -0.034661 0
-0.051778 -0.028823 0
-0.042452 -0.023138 0
-0.033721 -0.017692 0
-0.025695 -0.012575 0
-0.018493 -0.007900 0
-0.012249 -0.003820 0
-0.007112 -0.000567 0
-0.003252 0.001518 0
-0.000833 0.001937 0
0.000000 -0.000002 0
0.000000 0.000007 0
-0.000982 0.024681 0
-0.003703 0.046277 0
-0.007948 0.064769 0
-0.013507 0.080074 0
-0.020173 0.092108 0
-0.027752 0.100838 0
-0.036066 0.106313 0
-0.044959 0.108676 0
-0.054297 0.108152 0
-0.063972 0.105033 0
-0.073897 0.099647 0
-0.083996 0.092332 0
-0.094200 0.083417 0
-0.104442 0.073209 0
-0.114643 0.061990 0
-0.124714 0.050013 0
-0.134546 0.037516 0
-0.144014 0.024721 0
-0.152972 0.011848 0
-0.161261 -0.000886 0
-0.168707 -0.013261 0
-0.175153 -0.025075 0
-0.180458 -0.036152 0
-0.184487 -0.046323 0