# vtk DataFile Version 2.0
generated by CFD-lab course output (written by Tobias Neckel) 
ASCII

DATASET STRUCTURED_GRID
DIMENSIONS  51 51 1 
POINTS 2601 float

0.000000 0.000000 0
0.020000 0.000000 0
0.040000 0.000000 0
0.060000 0.000000 0
0.080000 0.000000 0
0.100000 0.000000 0
0.120000 0.000000 0
0.140000 0.000000 0
0.160000 0.000000 0
0.180000 0.000000 0
0.200000 0.000000 0
0.220000 0.000000 0
0.240000 0.000000 0
0.260000 0.000000 0
0.280000 0.000000 0
0.300000 0.000000 0
0.320000 0.000000 0
0.340000 0.000000 0
0.360000 0.000000 0
0.380000 0.000000 0
0.400000 0.000000 0
0.420000 0.000000 0
0.440000 0.000000 0
0.460000 0.000000 0
0.480000 0.000000 0
0.500000 0.000000 0
0.520000 0.000000 0
0.540000 0.000000 0
0.560000 0.000000 0
0.580000 0.000000 0
0.600000 0.000000 0
0.620000 0.000000 0
0.640000 0.000000 0
0.660000 0.000000 0
0.680000 0.000000 0
0.700000 0.000000 0
0.720000 0.000000 0
0.740000 0.000000 0
0.760000 0.000000 0
0.780000 0.000000 0
0.800000 0.000000 0
0.820000 0.000000 0
0.840000 0.000000 0
0.860000 0.000000 0
0.880000 0.000000 0
0.900000 0.000000 0
0.920000 0.000000 0
0.940000 0.000000 0
0.960000 0.000000 0
0.980000 0.000000 0
1.000000 0.000000 0
0.000000 0.020000 0
0.020000 0.020000 0
0.040000 0.020000 0
0.060000 0.020000 0
0.080000 0.020000 0
0.100000 0.020000 0
0.120000 0.020000 0
0.140000 0.020000 0
0.160000 0.020000 0
0.180000 0.020000 0
0.200000 0.020000 0
0.220000 0.020000 0
0.240000 0.020000 0
0.260000 0.020000 0
0.280000 0.020000 0
0.300000 0.020000 0
0.320000 0.020000 0
0.340000 0.020000 0
0.360000 0.020000 0
0.380000 0.020000 0
0.400000 0.020000 0
0.420000 0.020000 0
0.440000 0.020000 0
0.460000 0.020000 0
0.480000 0.020000 0
0.500000 0.020000 0
0.520000 0.020000 0
0.540000 0.020000 0
0.560000 0.020000 0
0.580000 0.020000 0
0.600000 0.020000 0
0.620000 0.020000 0
0.640000 0.020000 0
0.660000 0.020000 0
0.680000 0.020000 0
0.700000 0.020000 0
0.720000 0.020000 0
0.740000 0.020000 0
0.760000 0.020000 0
0.780000 0.020000 0
0.800000 0.020000 0
0.820000 0.020000 0
0.840000 0.020000 0
0.860000 0.020000 0
0.880000 0.020000 0
0.900000 0.020000 0
0.920000 0.020000 0
0.940000 0.020000 0
0.960000 0.020000 0
0.980000 0.020000 0
1.000000 0.020000 0
0.000000 0.040000 0
0.020000 0.040000 0
0.040000 0.040000 0
0.060000 0.040000 0
0.080000 0.040000 0
0.100000 0.040000 0
0.120000 0.040000 0
0.140000 0.040000 0
0.160000 0.040000 0
0.180000 0.040000 0
0.200000 0.040000 0
0.220000 0.040000 0
0.240000 0.040000 0
0.260000 0.040000 0
0.280000 0.040000 0
0.300000 0.040000 0
0.320000 0.040000 0
0.340000 0.040000 0
0.360000 0.040000 0
0.380000 0.040000 0
0.400000 0.040000 0
0.420000 0.040000 0
0.440000 0.040000 0
0.460000 0.040000 0
0.480000 0.040000 0
0.500000 0.040000 0
0.520000 0.040000 0
0.540000 0.040000 0
0.560000 0.040000 0
0.580000 0.040000 0
0.600000 0.040000 0
0.620000 0.040000 0
0.640000 0.040000 0
0.660000 0.040000 0
0.680000 0.040000 0
0.700000 0.040000 0
0.720000 0.040000 0
0.740000 0.040000 0
0.760000 0.040000 0
0.780000 0.040000 0
0.800000 0.040000 0
0.820000 0.040000 0
0.840000 0.040000 0
0.860000 0.040000 0
0.880000 0.040000 0
0.900000 0.040000 0
0.920000 0.040000 0
0.940000 0.040000 0
0.960000 0.040000 0
0.980000 0.040000 0
1.000000 0.040000 0
0.000000 0.060000 0
0.020000 0.060000 0
0.040000 0.060000 0
0.060000 0.060000 0
0.080000 0.060000 0
0.100000 0.060000 0
0.120000 0.060000 0
0.140000 0.060000 0
0.160000 0.060000 0
0.180000 0.060000 0
0.200000 0.060000 0
0.220000 0.060000 0
0.240000 0.060000 0
0.260000 0.060000 0
0.280000 0.060000 0
0.300000 0.060000 0
0.320000 0.060000 0
0.340000 0.060000 0
0.360000 0.060000 0
0.380000 0.060000 0
0.400000 0.060000 0
0.420000 0.060000 0
0.440000 0.060000 0
0.460000 0.060000 0
0.480000 0.060000 0
0.500000 0.060000 0
0.520000 0.060000 0
0.540000 0.060000 0
0.560000 0.060000 0
0.580000 0.060000 0
0.600000 0.060000 0
0.620000 0.060000 0
0.640000 0.060000 0
0.660000 0.060000 0
0.680000 0.060000 0
0.700000 0.060000 0
0.720000 0.060000 0
0.740000 0.060000 0
0.760000 0.060000 0
0.780000 0.060000 0
0.800000 0.060000 0
0.820000 0.060000 0
0.840000 0.060000 0
0.860000 0.060000 0
0.880000 0.060000 0
0.900000 0.060000 0
0.920000 0.060000 0
0.940000 0.060000 0
0.960000 0.060000 0
0.980000 0.060000 0
1.000000 0.060000 0
0.000000 0.080000 0
0.020000 0.080000 0
0.040000 0.080000 0
0.060000 0.080000 0
0.080000 0.080000 0
0.100000 0.080000 0
0.120000 0.080000 0
0.140000 0.080000 0
0.160000 0.080000 0
0.180000 0.080000 0
0.200000 0.080000 0
0.220000 0.080000 0
0.240000 0.080000 0
0.260000 0.080000 0
0.280000 0.080000 0
0.300000 0.080000 0
0.320000 0.080000 0
0.340000 0.080000 0
0.360000 0.080000 0
0.380000 0.080000 0
0.400000 0.080000 0
0.420000 0.080000 0
0.440000 0.080000 0
0.460000 0.080000 0
0.480000 0.080000 0
0.500000 0.080000 0
0.520000 0.080000 0
0.540000 0.080000 0
0.560000 0.080000 0
0.580000 0.080000 0
0.600000 0.080000 0
0.620000 0.080000 0
0.640000 0.080000 0
0.660000 0.080000 0
0.680000 0.080000 0
0.700000 0.080000 0
0.720000 0.080000 0
0.740000 0.080000 0
0.760000 0.080000 0
0.780000 0.080000 0
0.800000 0.080000 0
0.820000 0.080000 0
0.840000 0.080000 0
0.860000 0.080000 0
0.880000 0.080000 0
0.900000 0.080000 0
0.920000 0.080000 0
0.940000 0.080000 0
0.960000 0.080000 0
0.980000 0.080000 0
1.000000 0.080000 0
0.000000 0.100000 0
0.020000 0.100000 0
0.040000 0.100000 0
0.060000 0.100000 0
0.080000 0.100000 0
0.100000 0.100000 0
0.120000 0.100000 0
0.140000 0.100000 0
0.160000 0.100000 0
0.180000 0.100000 0
0.200000 0.100000 0
0.220000 0.100000 0
0.240000 0.100000 0
0.260000 0.100000 0
0.280000 0.100000 0
0.300000 0.100000 0
0.320000 0.100000 0
0.340000 0.100000 0
0.360000 0.100000 0
0.380000 0.100000 0
0.400000 0.100000 0
0.420000 0.100000 0
0.440000 0.100000 0
0.460000 0.100000 0
0.480000 0.100000 0
0.500000 0.100000 0
0.520000 0.100000 0
0.540000 0.100000 0
0.560000 0.100000 0
0.580000 0.100000 0
0.600000 0.100000 0
0.620000 0.100000 0
0.640000 0.100000 0
0.660000 0.100000 0
0.680000 0.100000 0
0.700000 0.100000 0
0.720000 0.100000 0
0.740000 0.100000 0
0.760000 0.100000 0
0.780000 0.100000 0
0.800000 0.100000 0
0.820000 0.100000 0
0.840000 0.100000 0
0.860000 0.100000 0
0.880000 0.100000 0
0.900000 0.100000 0
0.920000 0.100000 0
0.940000 0.100000 0
0.960000 0.100000 0
0.980000 0.100000 0
1.000000 0.100000 0
0.000000 0.120000 0
0.020000 0.120000 0
0.040000 0.120000 0
0.060000 0.120000 0
0.080000 0.120000 0
0.100000 0.120000 0
0.120000 0.120000 0
0.140000 0.120000 0
0.160000 0.120000 0
0.180000 0.120000 0
0.200000 0.120000 0
0.220000 0.120000 0
0.240000 0.120000 0
0.260000 0.120000 0
0.280000 0.120000 0
0.300000 0.120000 0
0.320000 0.120000 0
0.340000 0.120000 0
0.360000 0.120000 0
0.380000 0.120000 0
0.400000 0.120000 0
0.420000 0.120000 0
0.440000 0.120000 0
0.460000 0.120000 0
0.480000 0.120000 0
0.500000 0.120000 0
0.520000 0.120000 0
0.540000 0.120000 0
0.560000 0.120000 0
0.580000 0.120000 0
0.600000 0.120000 0
0.620000 0.120000 0
0.640000 0.120000 0
0.660000 0.120000 0
0.680000 0.120000 0
0.700000 0.120000 0
0.720000 0.120000 0
0.740000 0.120000 0
0.760000 0.120000 0
0.780000 0.120000 0
0.800000 0.120000 0
0.820000 0.120000 0
0.840000 0.120000 0
0.860000 0.120000 0
0.880000 0.120000 0
0.900000 0.120000 0
0.920000 0.120000 0
0.940000 0.120000 0
0.960000 0.120000 0
0.980000 0.120000 0
1.000000 0.120000 0
0.000000 0.140000 0
0.020000 0.140000 0
0.040000 0.140000 0
0.060000 0.140000 0
0.080000 0.140000 0
0.100000 0.140000 0
0.120000 0.140000 0
0.140000 0.140000 0
0.160000 0.140000 0
0.180000 0.140000 0
0.200000 0.140000 0
0.220000 0.140000 0
0.240000 0.140000 0
0.260000 0.140000 0
0.280000 0.140000 0
0.300000 0.140000 0
0.320000 0.140000 0
0.340000 0.140000 0
0.360000 0.140000 0
0.380000 0.140000 0
0.400000 0.140000 0
0.420000 0.140000 0
0.440000 0.140000 0
0.460000 0.140000 0
0.480000 0.140000 0
0.500000 0.140000 0
0.520000 0.140000 0
0.540000 0.140000 0
0.560000 0.140000 0
0.580000 0.140000 0
0.600000 0.140000 0
0.620000 0.140000 0
0.640000 0.140000 0
0.660000 0.140000 0
0.680000 0.140000 0
0.700000 0.140000 0
0.720000 0.140000 0
0.740000 0.140000 0
0.760000 0.140000 0
0.780000 0.140000 0
0.800000 0.140000 0
0.820000 0.140000 0
0.840000 0.140000 0
0.860000 0.140000 0
0.880000 0.140000 0
0.900000 0.140000 0
0.920000 0.140000 0
0.940000 0.140000 0
0.960000 0.140000 0
0.980000 0.140000 0
1.000000 0.140000 0
0.000000 0.160000 0
0.020000 0.160000 0
0.040000 0.160000 0
0.060000 0.160000 0
0.080000 0.160000 0
0.100000 0.160000 0
0.120000 0.160000 0
0.140000 0.160000 0
0.160000 0.160000 0
0.180000 0.160000 0
0.200000 0.160000 0
0.220000 0.160000 0
0.240000 0.160000 0
0.260000 0.160000 0
0.280000 0.160000 0
0.300000 0.160000 0
0.320000 0.160000 0
0.340000 0.160000 0
0.360000 0.160000 0
0.380000 0.160000 0
0.400000 0.160000 0
0.420000 0.160000 0
0.440000 0.160000 0
0.460000 0.160000 0
0.480000 0.160000 0
0.500000 0.160000 0
0.520000 0.160000 0
0.540000 0.160000 0
0.560000 0.160000 0
0.580000 0.160000 0
0.600000 0.160000 0
0.620000 0.160000 0
0.640000 0.160000 0
0.660000 0.160000 0
0.680000 0.160000 0
0.700000 0.160000 0
0.720000 0.160000 0
0.740000 0.160000 0
0.760000 0.160000 0
0.780000 0.160000 0
0.800000 0.160000 0
0.820000 0.160000 0
0.840000 0.160000 0
0.860000 0.160000 0
0.880000 0.160000 0
0.900000 0.160000 0
0.920000 0.160000 0
0.940000 0.160000 0
0.960000 0.160000 0
0.980000 0.160000 0
1.000000 0.160000 0
0.000000 0.180000 0
0.020000 0.180000 0
0.040000 0.180000 0
0.060000 0.180000 0
0.080000 0.180000 0
0.100000 0.180000 0
0.120000 0.180000 0
0.140000 0.180000 0
0.160000 0.180000 0
0.180000 0.180000 0
0.200000 0.180000 0
0.220000 0.180000 0
0.240000 0.180000 0
0.260000 0.180000 0
0.280000 0.180000 0
0.300000 0.180000 0
0.320000 0.180000 0
0.340000 0.180000 0
0.360000 0.180000 0
0.380000 0.180000 0
0.400000 0.180000 0
0.420000 0.180000 0
0.440000 0.180000 0
0.460000 0.180000 0
0.480000 0.180000 0
0.500000 0.180000 0
0.520000 0.180000 0
0.540000 0.180000 0
0.560000 0.180000 0
0.580000 0.180000 0
0.600000 0.180000 0
0.620000 0.180000 0
[...]
POINT_DATA 2601 

VECTORS velocity float
0.000000 0.000000 0
0.000001 0.000000 0
0.000001 0.000000 0
0.000000 0.000000 0
-0.000000 0.000000 0
-0.000000 0.000000 0
-0.000000 0.000000 0
-0.000000 0.000000 0
0.000000 0.000000 0
0.000000 0.000000 0
0.000000 0.000000 0
0.000000 0.000000 0
-0.000000 0.000000 0
-0.000000 0.000000 0
-0.000000 0.000000 0
-0.000000 0.000000 0
0.000000 0.000000 0
0.000000 0.000000 0
0.000000 0.000000 0
0.000000 0.000000 0
-0.000000 0.000000 0
-0.000000 0.000000 0
-0.000000 0.000000 0
-0.000000 0.000000 0
-0.000000 0.000000 0
-0.000000 0.000000 0
0.000000 0.000000 0
0.000000 0.000000 0
0.000000 0.000000 0
0.000000 0.000000 0
0.000000 0.000000 0
0.000000 0.000000 0
0.000000 0.000000 0
0.000000 0.000000 0
-0.000000 0.000000 0
-0.000000 0.000000 0
-0.000000 0.000000 0
-0.000000 0.000000 0
-0.000000 0.000000 0
-0.000000 0.000000 0
-0.000000 0.000000 0
0.000000 0.000000 0
0.000000 0.000000 0
0.000000 0.000000 0
0.000000 0.000000 0
0.000000 0.000000 0
0.000000 0.000000 0
0.000000 0.000000 0
-0.000000 0.000000 0
-0.000000 0.000000 0
0.000000 0.000000 0
0.000000 0.000001 0
-0.000006 0.000011 0
-0.000356 0.000248 0
-0.001134 0.000512 0
-0.002302 0.000732 0
-0.003767 0.000881 0
-0.005413 0.000952 0
-0.007113 0.000948 0
-0.008750 0.000875 0
-0.010219 0.000747 0
-0.011437 0.000578 0
-0.012346 0.000383 0
-0.012909 0.000176 0
-0.013115 -0.000030 0
-0.012968 -0.000227 0
-0.012489 -0.000406 0
-0.011709 -0.000562 0
-0.010667 -0.000692 0
-0.009409 -0.000793 0
-0.007983 -0.000867 0
-0.006436 -0.000912 0
-0.004817 -0.000931 0
-0.003171 -0.000925 0
-0.001540 -0.000896 0
0.000039 -0.000849 0
0.001532 -0.000785 0
0.002912 -0.000709 0
0.004158 -0.000624 0
0.005254 -0.000533 0
0.006188 -0.000438 0
0.006955 -0.000342 0
0.007554 -0.000246 0
0.007985 -0.000154 0
0.008253 -0.000066 0
0.008366 0.000018 0
0.008332 0.000095 0
0.008162 0.000167 0
0.007864 0.000232 0
0.007452 0.000292 0
0.006934 0.000346 0
0.006323 0.000393 0
0.005631 0.000434 0
0.004872 0.000466 0
0.004064 0.000487 0
0.003229 0.000494 0
0.002399 0.000479 0
0.001613 0.000434 0
0.000923 0.000352 0
0.000390 0.000226 0
0.000074 0.000074 0
0.000000 0.000000 0
0.000000 0.000001 0
-0.000229 0.000357 0
-0.001097 0.001128 0
-0.002647 0.001945 0
-0.004812 0.002633 0
-0.007450 0.003111 0
-0.010379 0.003346 0
-0.013402 0.003338 0
-0.016326 0.003106 0
-0.018979 0.002688 0
-0.021219 0.002127 0
-0.022943 0.001472 0
-0.024084 0.000769 0
-0.024615 0.000059 0
-0.024537 -0.000626 0
-0.023875 -0.001259 0
-0.022678 -0.001822 0
-0.021006 -0.002300 0
-0.018931 -0.002684 0
-0.016533 -0.002973 0
-0.013892 -0.003165 0
-0.011090 -0.003265 0
-0.008207 -0.003277 0
-0.005315 -0.003210 0
-0.002484 -0.003072 0
0.000226 -0.002874 0
0.002764 -0.002626 0
0.005085 -0.002341 0
0.007158 -0.002030 0
0.008959 -0.001702 0
0.010472 -0.001366 0
0.011692 -0.001029 0
0.012617 -0.000700 0
0.013252 -0.000381 0
0.013608 -0.000079 0
0.013697 0.000204 0
0.013536 0.000468 0
0.013143 0.000710 0
0.012537 0.000931 0
0.011737 0.001129 0
0.010765 0.001303 0
0.009644 0.001451 0
0.008400 0.001567 0
0.007065 0.001642 0
0.005680 0.001665 0
0.004296 0.001616 0
0.002975 0.001476 0
0.001798 0.001223 0
0.000852 0.000849 0
0.000228 0.000390 0
0.000000 0.000000 0
0.000000 0.000000 0
-0.000476 0.001108 0
-0.001882 0.002665 0
-0.004167 0.004226 0
-0.007217 0.005534 0
-0.010851 0.006449 0
-0.014849 0.006905 0
-0.018968 0.006895 0
-0.022968 0.006452 0
-0.026634 0.005639 0
-0.029784 0.004541 0
-0.032283 0.003248 0
-0.034039 0.001849 0
-0.035009 0.000422 0
-0.035183 -0.000966 0
-0.034588 -0.002264 0
-0.033275 -0.003431 0
-0.031315 -0.004438 0
-0.028793 -0.005267 0
-0.025805 -0.005906 0
-0.022452 -0.006354 0
-0.018840 -0.006616 0
-0.015069 -0.006699 0
-0.011237 -0.006619 0
-0.007438 -0.006390 0
-0.003752 -0.006034 0
-0.000252 -0.005569 0
0.002998 -0.005018 0
0.005947 -0.004406 0
0.008558 -0.003752 0
0.010803 -0.003075 0
0.012669 -0.002391 0
0.014149 -0.001714 0
0.015244 -0.001057 0
0.015965 -0.000428 0
0.016324 0.000167 0
0.016341 0.000721 0
0.016039 0.001232 0
0.015441 0.001698 0
0.014576 0.002118 0
0.013470 0.002487 0
0.012156 0.002799 0
0.010670 0.003044 0
0.009052 0.003207 0
0.007354 0.003263 0
0.005639 0.003184 0
0.003982 0.002932 0
0.002476 0.002475 0
0.001227 0.001796 0
0.000356 0.000925 0
0.000000 0.000000 0
0.000000 -0.000000 0
-0.000690 0.002238 0
-0.002584 0.004818 0
-0.005537 0.007280 0
-0.009377 0.009318 0
-0.013888 0.010744 0
-0.018816 0.011463 0
-0.023889 0.011456 0
-0.028839 0.010772 0
-0.033421 0.009503 0
-0.037428 0.007776 0
-0.040699 0.005728 0
-0.043125 0.003495 0
-0.044644 0.001203 0
-0.045238 -0.001046 0
-0.044926 -0.003167 0
-0.043757 -0.005096 0
-0.041800 -0.006782 0
-0.039147 -0.008195 0
-0.035898 -0.009313 0
-0.032166 -0.010130 0
-0.028066 -0.010649 0
-0.023714 -0.010879 0
-0.019225 -0.010841 0
-0.014707 -0.010558 0
-0.010260 -0.010059 0
-0.005976 -0.009376 0
-0.001932 -0.008541 0
0.001804 -0.007589 0
0.005177 -0.006558 0
0.008146 -0.005477 0
0.010685 -0.004375 0
0.012780 -0.003275 0
0.014426 -0.002197 0
0.015628 -0.001159 0
0.016397 -0.000172 0
0.016752 0.000753 0
0.016717 0.001610 0
0.016318 0.002394 0
0.015587 0.003100 0
0.014558 0.003723 0
0.013267 0.004252 0
0.011754 0.004671 0
0.010069 0.004958 0
0.008266 0.005078 0
0.006414 0.004989 0
0.004594 0.004639 0
0.002907 0.003978 0
0.001472 0.002969 0
0.000439 0.001617 0
0.000000 0.000000 0
0.000000 -0.000000 0
-0.000862 0.003691 0
-0.003172 0.007512 0
-0.006709 0.011020 0
-0.011249 0.013886 0
-0.016537 0.015888 0
-0.022295 0.016906 0
-0.028229 0.016918 0
-0.034050 0.015984 0
-0.039495 0.014228 0
-0.044339 0.011820 0
-0.048403 0.008946 0
-0.051563 0.005794 0
-0.053741 0.002535 0
-0.054908 -0.000684 0
-0.055073 -0.003746 0
-0.054275 -0.006557 0
-0.052579 -0.009048 0
-0.050072 -0.011169 0
-0.046852 -0.012887 0
-0.043033 -0.014187 0
-0.038733 -0.015068 0
-0.034074 -0.015540 0
-0.029181 -0.015626 0
-0.024172 -0.015355 0
-0.019161 -0.014764 0
-0.014252 -0.013897 0
-0.009541 -0.012798 0
-0.005108 -0.011515 0
-0.001021 -0.010094 0
0.002663 -0.008583 0
0.005903 -0.007025 0
0.008671 -0.005455 0
0.010954 -0.003905 0
0.012749 -0.002399 0
0.014062 -0.000958 0
0.014908 0.000401 0
0.015307 0.001666 0
0.015287 0.002828 0
0.014881 0.003878 0
0.014123 0.004807 0
0.013053 0.005603 0
0.011715 0.006242 0
0.010158 0.006695 0
0.008440 0.006918 0
0.006629 0.006856 0
0.004809 0.006439 0
0.003083 0.005597 0
0.001583 0.004264 0
0.000478 0.002398 0
0.000000 0.000000 0
0.000000 -0.000000 0
-0.000995 0.005409 0
-0.003649 0.010666 0
-0.007684 0.015357 0
-0.012832 0.019146 0
-0.018810 0.021790 0
-0.025314 0.023154 0
-0.032036 0.023211 0
-0.038673 0.022038 0
-0.044949 0.019792 0
-0.050626 0.016684 0
-0.055515 0.012952 0
-0.059475 0.008834 0
-0.062418 0.004548 0
-0.064298 0.000285 0
-0.065113 -0.003801 0
-0.064890 -0.007589 0
-0.063683 -0.010986 0
-0.061568 -0.013922 0
-0.058636 -0.016352 0
-0.054993 -0.018250 0
-0.050753 -0.019607 0
-0.046039 -0.020431 0
-0.040975 -0.020744 0
-0.035687 -0.020578 0
-0.030296 -0.019978 0
-0.024918 -0.018995 0
-0.019659 -0.017685 0
-0.014615 -0.016110 0
-0.009869 -0.014328 0
-0.005490 -0.012401 0
-0.001533 -0.010383 0
0.001958 -0.008326 0
0.004958 -0.006275 0
0.007451 -0.004267 0
0.009434 -0.002331 0
0.010916 -0.000492 0
0.011911 0.001231 0
0.012442 0.002820 0
0.012539 0.004264 0
0.012238 0.005550 0
0.011578 0.006659 0
0.010602 0.007566 0
0.009358 0.008233 0
0.007903 0.008607 0
0.006303 0.008619 0
0.004640 0.008184 0
0.003017 0.007203 0
0.001569 0.005575 0
0.000480 0.003201 0
0.000000 0.000000 0
0.000000 -0.000000 0
-0.001097 0.007340 0
-0.004027 0.014201 0
-0.008477 0.020204 0
-0.014147 0.025012 0
-0.020728 0.028369 0
-0.027902 0.030132 0
-0.035347 0.030277 0
-0.042752 0.028897 0
-0.049832 0.026181 0
-0.056343 0.022385 0
-0.062085 0.017795 0
-0.066907 0.012697 0
-0.070707 0.007359 0
-0.073427 0.002011 0
-0.075046 -0.003154 0
-0.075579 -0.007987 0
-0.075065 -0.012370 0
-0.073564 -0.016215 0
-0.071153 -0.019462 0
-0.067925 -0.022070 0
-0.063985 -0.024022 0
-0.059448 -0.025319 0
-0.054434 -0.025978 0
-0.049069 -0.026034 0
-0.043478 -0.025534 0
-0.037782 -0.024534 0
-0.032099 -0.023100 0
-0.026536 -0.021304 0
-0.021189 -0.019220 0
-0.016143 -0.016919 0
-0.011468 -0.014473 0
-0.007220 -0.011947 0
-0.003440 -0.009397 0
-0.000159 -0.006875 0
0.002609 -0.004422 0
0.004861 -0.002075 0
0.006604 0.000140 0
0.007850 0.002200 0
0.008624 0.004082 0
0.008958 0.005769 0
0.008887 0.007239 0
0.008453 0.008462 0
0.007701 0.009394 0
0.006682 0.009973 0
0.005457 0.010119 0
0.004104 0.009726 0
0.002720 0.008668 0
0.001440 0.006801 0
0.000448 0.003967 0
0.000000 0.000000 0
0.000000 -0.000000 0
-0.001174 0.009437 0
-0.004321 0.018047 0
-0.009109 0.025477 0
-0.015216 0.031397 0
-0.022317 0.035545 0
-0.030084 0.037772 0
-0.038186 0.038061 0
-0.046309 0.036524 0
-0.054165 0.033383 0
-0.061502 0.028936 0
-0.068117 0.023516 0
-0.073848 0.017456 0
-0.078583 0.011068 0
-0.082248 0.004624 0
-0.084805 -0.001649 0
-0.086252 -0.007570 0
-0.086610 -0.013001 0
-0.085919 -0.017834 0
-0.084239 -0.021991 0
-0.081645 -0.025417 0
-0.078227 -0.028084 0
-0.074086 -0.029982 0
-0.069334 -0.031122 0
-0.064090 -0.031535 0
-0.058478 -0.031265 0
-0.052622 -0.030373 0
-0.046644 -0.028932 0
-0.040663 -0.027020 0
-0.034787 -0.024721 0
-0.029115 -0.022122 0
-0.023732 -0.019306 0
-0.018709 -0.016354 0
-0.014107 -0.013336 0
-0.009966 -0.010316 0
-0.006317 -0.007352 0
-0.003177 -0.004487 0
-0.000551 -0.001758 0
0.001565 0.000800 0
0.003183 0.003157 0
0.004323 0.005287 0
0.005017 0.007164 0
0.005300 0.008753 0
0.005211 0.010005 0
0.004796 0.010851 0
0.004109 0.011197 0
0.003215 0.010921 0
0.002206 0.009867 0
0.001204 0.007847 0
0.000386 0.004641 0
0.000000 0.000000 0
0.000000 0.000000 0
-0.001229 0.011661 0
-0.004542 0.022137 0
-0.009596 0.031098 0
-0.016060 0.038220 0
-0.023599 0.043237 0
-0.031880 0.046001 0
-0.040571 0.046502 0
-0.049356 0.044875 0
-0.057947 0.041375 0
-0.066092 0.036337 0
-0.073583 0.030141 0
-0.080253 0.023164 0
-0.085978 0.015758 0
-0.090670 0.008233 0
-0.094275 0.000850 0
-0.096767 -0.006183 0
-0.098148 -0.012704 0
-0.098439 -0.018586 0
-0.097678 -0.023735 0
-0.095917 -0.028081 0
-0.093226 -0.031581 0
-0.089689 -0.034212 0
-0.085403 -0.035974 0
-0.080475 -0.036891 0
-0.075022 -0.037002 0
-0.069169 -0.036367 0
-0.063038 -0.035059 0
-0.056755 -0.033161 0
-0.050438 -0.030768 0
-0.044198 -0.027975 0
-0.038136 -0.024879 0
-0.032341 -0.021572 0
-0.026887 -0.018141 0
-0.021835 -0.014665 0
-0.017229 -0.011212 0
-0.013104 -0.007841 0
-0.009478 -0.004602 0
-0.006358 -0.001534 0
-0.003746 0.001324 0
-0.001635 0.003934 0
-0.000008 0.006262 0
0.001163 0.008268 0
0.001908 0.009897 0
0.002263 0.011076 0
0.002270 0.011700 0
0.001985 0.011629 0
0.001481 0.010679 0
0.000866 0.008620 0
0.000296 0.005171 0
0.000000 0.000000 0
0.000000 0.000000 0
-0.001267 0.013979 0
-0.004700 0.026413 0
-0.009956 0.036994 0
-0.016699 0.045400 0
-0.024595 0.051365 0
-0.033310 0.054744 0
-0.042514 0.055536 0
-0.051896 0.053900 0
-0.061170 0.050119 0
-0.070088 0.044572 0
-0.078439 0.037676 0
-0.086053 0.029851 0
-0.092797 0.021485 0
-0.098571 0.012921 0
-0.103302 0.004449 0
-0.106943 -0.003697 0
-0.109474 -0.011329 0
-0.110892 -0.018305 0
-0.111211 -0.024513 0
-0.110460 -0.029869 0
-0.108684 -0.034312 0
-0.105945 -0.037806 0
-0.102321 -0.040337 0
-0.097902 -0.041915 0
-0.092794 -0.042571 0
-0.087114 -0.042358 0
-0.080983 -0.041345 0
-0.074529 -0.039620 0
-0.067877 -0.037278 0
-0.061150 -0.034424 0
-0.054462 -0.031164 0
-0.047917 -0.027603 0
-0.041608 -0.023842 0
-0.035613 -0.019974 0
-0.029996 -0.016082 0
-0.024807 -0.012238 0
-0.020083 -0.008504 0
-0.015846 -0.004932 0
-0.012109 -0.001566 0
-0.008880 0.001549 0
-0.006160 0.004366 0
-0.003938 0.006837 0
-0.002195 0.008905 0
-0.000908 0.010488 0
-0.000049 0.011475 0
0.000419 0.011710 0
0.000550 0.010986 0
0.000427 0.009031 0
0.000178 0.005507 0
0.000000 0.000000 0
0.000000 0.000000 0
-0.001290 0.016362 0
-0.004803 0.030825 0
-0.010200 0.043096 0
-0.017150 0.052859 0
-0.025324 0.059848 0
-0.034390 0.063920 0
-0.044028 0.065089 0
-0.053932 0.063532 0
-0.063825 0.059566 0
-0.073461 0.053606 0
-0.082634 0.046106 0
-0.091172 0.037522 0
-0.098936 0.028276 0
-0.105815 0.018738 0
-0.111720 0.009222 0
-0.116584 -0.000010 0
-0.120359 -0.008754 0
-0.123019 -0.016850 0
-0.124552 -0.024167 0
-0.124963 -0.030608 0
-0.124271 -0.036095 0
-0.122509 -0.040575 0
-0.119733 -0.044018 0
-0.116012 -0.046417 0
-0.111435 -0.047790 0
-0.106106 -0.048178 0
-0.100140 -0.047643 0
-0.093662 -0.046267 0
-0.086802 -0.044147 0
-0.079689 -0.041391 0
-0.072450 -0.038112 0
-0.065204 -0.034425 0
-0.058061 -0.030445 0
-0.051118 -0.026276 0
-0.044457 -0.022018 0
-0.038150 -0.017755 0
-0.032250 -0.013563 0
-0.026800 -0.009507 0
-0.021829 -0.005641 0
-0.017359 -0.002015 0
-0.013403 0.001319 0
-0.009975 0.004303 0
-0.007077 0.006867 0
-0.004702 0.008930 0
-0.002841 0.010373 0
-0.001478 0.011030 0
-0.000585 0.010671 0
-0.000111 0.008992 0
0.000032 0.005598 0
0.000000 -0.000000 0
0.000000 0.000000 0
-0.001301 0.018782 0
-0.004857 0.035323 0
-0.010341 0.049342 0
-0.017431 0.060523 0
-0.025804 0.068605 0
-0.035140 0.073448 0
-0.045126 0.075078 0
-0.055470 0.073696 0
-0.065903 0.069648 0
-0.076189 0.063382 0
-0.086124 0.055387 0
-0.095541 0.046153 0
-0.104295 0.036128 0
-0.112268 0.025705 0
-0.119360 0.015218 0
-0.125483 0.004942 0
-0.130562 -0.004894 0
-0.134548 -0.014112 0
-0.137401 -0.022568 0
-0.139100 -0.030151 0
-0.139634 -0.036766 0
-0.139011 -0.042344 0
-0.137256 -0.046834 0
-0.134414 -0.050212 0
-0.130553 -0.052477 0
-0.125757 -0.053653 0
-0.120130 -0.053789 0
-0.113790 -0.052958 0
-0.106866 -0.051252 0
-0.099491 -0.048776 0
-0.091800 -0.045648 0
-0.083927 -0.041992 0
-0.075998 -0.037928 0
-0.068127 -0.033578 0
-0.060418 -0.029050 0
-0.052961 -0.024446 0
-0.045833 -0.019854 0
-0.039095 -0.015353 0
-0.032799 -0.011007 0
-0.026983 -0.006877 0
-0.021678 -0.003018 0
-0.016912 0.000511 0
-0.012713 0.003632 0
-0.009102 0.006252 0
-0.006093 0.008250 0
-0.003698 0.009454 0
-0.001920 0.009620 0
-0.000749 0.008414 0
-0.000142 0.005395 0
0.000000 -0.000000 0
0.000000 0.000000 0
-0.001300 0.021218 0
-0.004868 0.039865 0
-0.010391 0.055671 0
-0.017557 0.068322 0
-0.026055 0.077557 0
-0.035577 0.083243 0
-0.045826 0.085419 0
-0.056520 0.084308 0
-0.067405 0.080285 0
-0.078254 0.073827 0
-0.088873 0.065458 0
-0.099097 0.055692 0
-0.108784 0.045004 0
-0.117809 0.033803 0
-0.126062 0.022437 0
-0.133441 0.011192 0
-0.139854 0.000311 0
-0.145215 -0.010010 0
-0.149459 -0.019615 0
-0.152540 -0.028375 0
-0.154418 -0.036184 0
-0.155070 -0.042954 0
-0.154492 -0.048615 0
-0.152699 -0.053120 0
-0.149732 -0.056448 0
-0.145652 -0.058601 0
-0.140545 -0.059610 0
-0.134516 -0.059532 0
-0.127688 -0.058447 0
-0.120194 -0.056456 0
-0.112174 -0.053675 0
-0.103773 -0.050228 0
-0.095130 -0.046246 0
-0.086378 -0.041856 0
-0.077642 -0.037183 0
-0.069033 -0.032340 0
-0.060648 -0.027429 0
-0.052573 -0.022541 0
-0.044881 -0.017754 0
-0.037634 -0.013136 0
-0.030883 -0.008751 0
-0.024675 -0.004663 0
-0.019057 -0.000943 0
-0.014078 0.002311 0
-0.009786 0.004969 0
-0.006230 0.006856 0
-0.003451 0.007722 0
-0.001484 0.007213 0
-0.000344 0.004849 0
0.000000 -0.000000 0
0.000000 -0.000000 0
-0.001289 0.023650 0
-0.004843 0.044414 0
-0.010360 0.062030 0
-0.017544 0.076187 0
-0.026097 0.086626 0
-0.035726 0.093219 0
-0.046149 0.096021 0
-0.057100 0.095275 0
-0.068340 0.091382 0
-0.079654 0.084850 0
-0.090861 0.076231 0
-0.101799 0.066063 0
-0.112333 0.054839 0
-0.122336 0.042984 0
-0.131692 0.030850 0
-0.140289 0.018734 0
-0.148016 0.006879 0
-0.154765 -0.004506 0
-0.160439 -0.015243 0
-0.164962 -0.025192 0
-0.168269 -0.034236 0
-0.170306 -0.042270 0
-0.171037 -0.049205 0
-0.170446 -0.054972 0
-0.168540 -0.059524 0
-0.165355 -0.062839 0
-0.160951 -0.064925 0
-0.155414 -0.065815 0
-0.148856 -0.065574 0
-0.141403 -0.064289 0
-0.133197 -0.062069 0
-0.124389 -0.059036 0
-0.115131 -0.055323 0
-0.105572 -0.051065 0
-0.095857 -0.046396 0
-0.086117 -0.041440 0
-0.076476 -0.036313 0
-0.067041 -0.031119 0
-0.057909 -0.025947 0
-0.049166 -0.020876 0
-0.040890 -0.015976 0
-0.033152 -0.011315 0
-0.026023 -0.006965 0
-0.019575 -0.003018 0
-0.013890 0.000403 0
-0.009056 0.003118 0
-0.005166 0.004874 0
-0.002313 0.005308 0
-0.000574 0.003911 0
0.000000 -0.000000 0
0.000000 -0.000000 0
-0.001270 0.026061 0
-0.004785 0.048937 0
-0.010259 0.068372 0
-0.017409 0.084059 0
-0.025951 0.095739 0
-0.035611 0.103295 0
-0.046121 0.106793 0
-0.057234 0.106499 0
-0.068726 0.102839 0
-0.080399 0.096348 0
-0.092082 0.087603 0
-0.103625 0.077165 0
-0.114897 0.065540 0
-0.125775 0.053163 0
-0.136141 0.040390 0
-0.145878 0.027516 0
-0.154862 0.014787 0
-0.162969 0.002412 0
-0.170075 -0.009418 0
-0.176065 -0.020546 0
-0.180851 -0.030841 0
-0.184351 -0.040186 0
-0.186495 -0.048475 0
-0.187235 -0.055617 0
-0.186543 -0.061538 0
-0.184420 -0.066190 0
-0.180898 -0.069550 0
-0.176039 -0.071627 0
-0.169932 -0.072459 0
-0.162695 -0.072115 0
-0.154464 -0.070688 0
-0.145393 -0.068294 0
-0.135641 -0.065062 0
-0.125375 -0.061130 0
-0.114754 -0.056638 0
-0.103934 -0.051721 0
-0.093061 -0.046506 0
-0.082269 -0.041108 0
-0.071680 -0.035628 0
-0.061406 -0.030155 0
-0.051552 -0.024765 0
-0.042217 -0.019530 0
-0.033499 -0.014521 0
-0.025502 -0.009823 0
-0.018340 -0.005550 0
-0.012140 -0.001867 0
-0.007050 0.000979 0
-0.003227 0.002621 0
-0.000830 0.002536 0
0.000000 -0.000000 0
0.000000 -0.000000 0
-0.001245 0.028436 0
-0.004702 0.053404 0
-0.010099 0.074654 0
-0.017168 0.091880 0
-0.025641 0.104828 0
-0.035259 0.113388 0
-0.045772 0.117645 0
-0.056953 0.117880 0
-0.068593 0.114548 0
-0.080512 0.108206 0
-0.092551 0.099456 0
-0.104573 0.088878 0
-0.116455 0.076989 0
-0.128081 0.064228 0
-0.139337 0.050954 0
-0.150102 0.037455 0
-0.160248 0.023970 0
-0.169640 0.010707 0
-0.178132 -0.002147 0
-0.185579 -0.014416 0
-0.191857 -0.025951 0
-0.196860 -0.036626 0
-0.200489 -0.046321 0
-0.202660 -0.054925 0
-0.203309 -0.062339 0
-0.202401 -0.068484 0
-0.199932 -0.073306 0
-0.195932 -0.076782 0
-0.190465 -0.078918 0
-0.183629 -0.079757 0
-0.175550 -0.079371 0
-0.166377 -0.077859 0
-0.156277 -0.075341 0
-0.145424 -0.071953 0
-0.133997 -0.067836 0
-0.122173 -0.063132 0
-0.110122 -0.057979 0
-0.098002 -0.052501 0
-0.085966 -0.046810 0
-0.074152 -0.041004 0
-0.062695 -0.035165 0
-0.051722 -0.029368 0
-0.041364 -0.023680 0
-0.031757 -0.018177 0
-0.023053 -0.012959 0
-0.015425 -0.008172 0
-0.009069 -0.004040 0
-0.004214 -0.000913 0
-0.001108 0.000684 0
0.000000 -0.000000 0
0.000000 -0.000000 0
-0.001215 0.030763 0
-0.004597 0.057791 0
-0.009890 0.080838 0
-0.016838 0.099601 0
-0.025189 0.113830 0
-0.034699 0.123426 0
-0.045138 0.128488 0
-0.056293 0.129320 0
-0.067978 0.126398 0
-0.080026 0.120305 0
-0.092295 0.111664 0
-0.104661 0.101069 0
-0.117012 0.089049 0
-0.129241 0.076045 0
-0.141240 0.062411 0
-0.152891 0.048428 0
-0.164068 0.034324 0
-0.174628 0.020296 0
-0.184415 0.006521 0
-0.193264 -0.006821 0
-0.201010 -0.019559 0
-0.207520 -0.031553 0
-0.212667 -0.042675 0
-0.216335 -0.052797 0
-0.218425 -0.061797 0
-0.218861 -0.069567 0
-0.217600 -0.076020 0
-0.214633 -0.081095 0
-0.209993 -0.084762 0
-0.203751 -0.087030 0
-0.196013 -0.087940 0
-0.186920 -0.087567 0
-0.176635 -0.086015 0
-0.165342 -0.083410 0
-0.153234 -0.079889 0
-0.140507 -0.075597 0
-0.127355 -0.070677 0
-0.113966 -0.065264 0
-0.100519 -0.059478 0
-0.087184 -0.053426 0
-0.074125 -0.047195 0
-0.061504 -0.040860 0
-0.049482 -0.034485 0
-0.038233 -0.028133 0
-0.027948 -0.021883 0
-0.018845 -0.015852 0
-0.011180 -0.010232 0
-0.005252 -0.005340 0
-0.001403 -0.001678 0
0.000000 -0.000000 0
0.000000 0.000000 0
-0.001181 0.033033 0
-0.004476 0.062079 0
-0.009643 0.086895 0
-0.016436 0.107178 0
-0.024619 0.122689 0
-0.033962 0.133337 0
-0.044253 0.139239 0
-0.055297 0.140721 0
-0.066924 0.138280 0
-0.078987 0.132524 0
-0.091358 0.124091 0
-0.103927 0.113594 0
-0.116596 0.101568 0
-0.129267 0.088456 0
-0.141844 0.074604 0
-0.154216 0.060283 0
-0.166260 0.045706 0
-0.177835 0.031053 0
-0.188782 0.016489 0
-0.198926 0.002180 0
-0.208078 -0.011695 0
-0.216056 -0.024969 0