# vtk DataFile Version 2.0
generated by CFD-lab course output (written by Tobias Neckel) 
ASCII

DATASET STRUCTURED_GRID
DIMENSIONS  51 51 1 
POINTS 2601 float

0.000000 0.000000 0
0.020000 0.000000 0
0.040000 0.000000 0
0.060000 0.000000 0
0.080000 0.000000 0
0.100000 0.000000 0
0.120000 0.000000 0
0.140000 0.000000 0
0.160000 0.000000 0
0.180000 0.000000 0
0.200000 0.000000 0
0.220000 0.000000 0
0.240000 0.000000 0
0.260000 0.000000 0
0.280000 0.000000 0
0.300000 0.000000 0
0.320000 0.000000 0
0.340000 0.000000 0
0.360000 0.000000 0
0.380000 0.000000 0
0.400000 0.000000 0
0.420000 0.000000 0
0.440000 0.000000 0
0.460000 0.000000 0
0.480000 0.000000 0
0.500000 0.000000 0
0.520000 0.000000 0
0.540000 0.000000 0
0.560000 0.000000 0
0.580000 0.000000 0
0.600000 0.000000 0
0.620000 0.000000 0
0.640000 0.000000 0
0.660000 0.000000 0
0.680000 0.000000 0
0.700000 0.000000 0
0.720000 0.000000 0
0.740000 0.000000 0
0.760000 0.000000 0
0.780000 0.000000 0
0.800000 0.000000 0
0.820000 0.000000 0
0.840000 0.000000 0
0.860000 0.000000 0
0.880000 0.000000 0
0.900000 0.000000 0
0.920000 0.000000 0
0.940000 0.000000 0
0.960000 0.000000 0
0.980000 0.000000 0
1.000000 0.000000 0
0.000000 0.020000 0
0.020000 0.020000 0
0.040000 0.020000 0
0.060000 0.020000 0
0.080000 0.020000 0
0.100000 0.020000 0
0.120000 0.020000 0
0.140000 0.020000 0
0.160000 0.020000 0
0.180000 0.020000 0
0.200000 0.020000 0
0.220000 0.020000 0
0.240000 0.020000 0
0.260000 0.020000 0
0.280000 0.020000 0
0.300000 0.020000 0
0.320000 0.020000 0
0.340000 0.020000 0
0.360000 0.020000 0
0.380000 0.020000 0
0.400000 0.020000 0
0.420000 0.020000 0
0.440000 0.020000 0
0.460000 0.020000 0
0.480000 0.020000 0
0.500000 0.020000 0
0.520000 0.020000 0
0.540000 0.020000 0
0.560000 0.020000 0
0.580000 0.020000 0
0.600000 0.020000 0
0.620000 0.020000 0
0.640000 0.020000 0
0.660000 0.020000 0
0.680000 0.020000 0
0.700000 0.020000 0
0.720000 0.020000 0
0.740000 0.020000 0
0.760000 0.020000 0
0.780000 0.020000 0
0.800000 0.020000 0
0.820000 0.020000 0
0.840000 0.020000 0
0.860000 0.020000 0
0.880000 0.020000 0
0.900000 0.020000 0
0.920000 0.020000 0
0.940000 0.020000 0
0.960000 0.020000 0
0.980000 0.020000 0
1.000000 0.020000 0
0.000000 0.040000 0
0.020000 0.040000 0
0.040000 0.040000 0
0.060000 0.040000 0
0.080000 0.040000 0
0.100000 0.040000 0
0.120000 0.040000 0
0.140000 0.040000 0
0.160000 0.040000 0
0.180000 0.040000 0
0.200000 0.040000 0
0.220000 0.040000 0
0.240000 0.040000 0
0.260000 0.040000 0
0.280000 0.040000 0
0.300000 0.040000 0
0.320000 0.040000 0
0.340000 0.040000 0
0.360000 0.040000 0
0.380000 0.040000 0
0.400000 0.040000 0
0.420000 0.040000 0
0.440000 0.040000 0
0.460000 0.040000 0
0.480000 0.040000 0
0.500000 0.040000 0
0.520000 0.040000 0
0.540000 0.040000 0
0.560000 0.040000 0
0.580000 0.040000 0
0.600000 0.040000 0
0.620000 0.040000 0
0.640000 0.040000 0
0.660000 0.040000 0
0.680000 0.040000 0
0.700000 0.040000 0
0.720000 0.040000 0
0.740000 0.040000 0
0.760000 0.040000 0
0.780000 0.040000 0
0.800000 0.040000 0
0.820000 0.040000 0
0.840000 0.040000 0
0.860000 0.040000 0
0.880000 0.040000 0
0.900000 0.040000 0
0.920000 0.040000 0
0.940000 0.040000 0
0.960000 0.040000 0
0.980000 0.040000 0
1.000000 0.040000 0
0.000000 0.060000 0
0.020000 0.060000 0
0.040000 0.060000 0
0.060000 0.060000 0
0.080000 0.060000 0
0.100000 0.060000 0
0.120000 0.060000 0
0.140000 0.060000 0
0.160000 0.060000 0
0.180000 0.060000 0
0.200000 0.060000 0
0.220000 0.060000 0
0.240000 0.060000 0
0.260000 0.060000 0
0.280000 0.060000 0
0.300000 0.060000 0
0.320000 0.060000 0
0.340000 0.060000 0
0.360000 0.060000 0
0.380000 0.060000 0
0.400000 0.060000 0
0.420000 0.060000 0
0.440000 0.060000 0
0.460000 0.060000 0
0.480000 0.060000 0
0.500000 0.060000 0
0.520000 0.060000 0
0.540000 0.060000 0
0.560000 0.060000 0
0.580000 0.060000 0
0.600000 0.060000 0
0.620000 0.060000 0
0.640000 0.060000 0
0.660000 0.060000 0
0.680000 0.060000 0
0.700000 0.060000 0
0.720000 0.060000 0
0.740000 0.060000 0
0.760000 0.060000 0
0.780000 0.060000 0
0.800000 0.060000 0
0.820000 0.060000 0
0.840000 0.060000 0
0.860000 0.060000 0
0.880000 0.060000 0
0.900000 0.060000 0
0.920000 0.060000 0
0.940000 0.060000 0
0.960000 0.060000 0
0.980000 0.060000 0
1.000000 0.060000 0
0.000000 0.080000 0
0.020000 0.080000 0
0.040000 0.080000 0
0.060000 0.080000 0
0.080000 0.080000 0
0.100000 0.080000 0
0.120000 0.080000 0
0.140000 0.080000 0
0.160000 0.080000 0
0.180000 0.080000 0
0.200000 0.080000 0
0.220000 0.080000 0
0.240000 0.080000 0
0.260000 0.080000 0
0.280000 0.080000 0
0.300000 0.080000 0
0.320000 0.080000 0
0.340000 0.080000 0
0.360000 0.080000 0
0.380000 0.080000 0
0.400000 0.080000 0
0.420000 0.080000 0
0.440000 0.080000 0
0.460000 0.080000 0
0.480000 0.080000 0
0.500000 0.080000 0
0.520000 0.080000 0
0.540000 0.080000 0
0.560000 0.080000 0
0.580000 0.080000 0
0.600000 0.080000 0
0.620000 0.080000 0
0.640000 0.080000 0
0.660000 0.080000 0
0.680000 0.080000 0
0.700000 0.080000 0
0.720000 0.080000 0
0.740000 0.080000 0
0.760000 0.080000 0
0.780000 0.080000 0
0.800000 0.080000 0
0.820000 0.080000 0
0.840000 0.080000 0
0.860000 0.080000 0
0.880000 0.080000 0
0.900000 0.080000 0
0.920000 0.080000 0
0.940000 0.080000 0
0.960000 0.080000 0
0.980000 0.080000 0
1.000000 0.080000 0
0.000000 0.100000 0
0.020000 0.100000 0
0.040000 0.100000 0
0.060000 0.100000 0
0.080000 0.100000 0
0.100000 0.100000 0
0.120000 0.100000 0
0.140000 0.100000 0
0.160000 0.100000 0
0.180000 0.100000 0
0.200000 0.100000 0
0.220000 0.100000 0
0.240000 0.100000 0
0.260000 0.100000 0
0.280000 0.100000 0
0.300000 0.100000 0
0.320000 0.100000 0
0.340000 0.100000 0
0.360000 0.100000 0
0.380000 0.100000 0
0.400000 0.100000 0
0.420000 0.100000 0
0.440000 0.100000 0
0.460000 0.100000 0
0.480000 0.100000 0
0.500000 0.100000 0
0.520000 0.100000 0
0.540000 0.100000 0
0.560000 0.100000 0
0.580000 0.100000 0
0.600000 0.100000 0
0.620000 0.100000 0
0.640000 0.100000 0
0.660000 0.100000 0
0.680000 0.100000 0
0.700000 0.100000 0
0.720000 0.100000 0
0.740000 0.100000 0
0.760000 0.100000 0
0.780000 0.100000 0
0.800000 0.100000 0
0.820000 0.100000 0
0.840000 0.100000 0
0.860000 0.100000 0
0.880000 0.100000 0
0.900000 0.100000 0
0.920000 0.100000 0
0.940000 0.100000 0
0.960000 0.100000 0
0.980000 0.100000 0
1.000000 0.100000 0
0.000000 0.120000 0
0.020000 0.120000 0
0.040000 0.120000 0
0.060000 0.120000 0
0.080000 0.120000 0
0.100000 0.120000 0
0.120000 0.120000 0
0.140000 0.120000 0
0.160000 0.120000 0
0.180000 0.120000 0
0.200000 0.120000 0
0.220000 0.120000 0
0.240000 0.120000 0
0.260000 0.120000 0
0.280000 0.120000 0
0.300000 0.120000 0
0.320000 0.120000 0
0.340000 0.120000 0
0.360000 0.120000 0
0.380000 0.120000 0
0.400000 0.120000 0
0.420000 0.120000 0
0.440000 0.120000 0
0.460000 0.120000 0
0.480000 0.120000 0
0.500000 0.120000 0
0.520000 0.120000 0
0.540000 0.120000 0
0.560000 0.120000 0
0.580000 0.120000 0
0.600000 0.120000 0
0.620000 0.120000 0
0.640000 0.120000 0
0.660000 0.120000 0
0.680000 0.120000 0
0.700000 0.120000 0
0.720000 0.120000 0
0.740000 0.120000 0
0.760000 0.120000 0
0.780000 0.120000 0
0.800000 0.120000 0
0.820000 0.120000 0
0.840000 0.120000 0
0.860000 0.120000 0
0.880000 0.120000 0
0.900000 0.120000 0
0.920000 0.120000 0
0.940000 0.120000 0
0.960000 0.120000 0
0.980000 0.120000 0
1.000000 0.120000 0
0.000000 0.140000 0
0.020000 0.140000 0
0.040000 0.140000 0
0.060000 0.140000 0
0.080000 0.140000 0
0.100000 0.140000 0
0.120000 0.140000 0
0.140000 0.140000 0
0.160000 0.140000 0
0.180000 0.140000 0
0.200000 0.140000 0
0.220000 0.140000 0
0.240000 0.140000 0
0.260000 0.140000 0
0.280000 0.140000 0
0.300000 0.140000 0
0.320000 0.140000 0
0.340000 0.140000 0
0.360000 0.140000 0
0.380000 0.140000 0
0.400000 0.140000 0
0.420000 0.140000 0
0.440000 0.140000 0
0.460000 0.140000 0
0.480000 0.140000 0
0.500000 0.140000 0
0.520000 0.140000 0
0.540000 0.140000 0
0.560000 0.140000 0
0.580000 0.140000 0
0.600000 0.140000 0
0.620000 0.140000 0
0.640000 0.140000 0
0.660000 0.140000 0
0.680000 0.140000 0
0.700000 0.140000 0
0.720000 0.140000 0
0.740000 0.140000 0
0.760000 0.140000 0
0.780000 0.140000 0
0.800000 0.140000 0
0.820000 0.140000 0
0.840000 0.140000 0
0.860000 0.140000 0
0.880000 0.140000 0
0.900000 0.140000 0
0.920000 0.140000 0
0.940000 0.140000 0
0.960000 0.140000 0
0.980000 0.140000 0
1.000000 0.140000 0
0.000000 0.160000 0
0.020000 0.160000 0
0.040000 0.160000 0
0.060000 0.160000 0
0.080000 0.160000 0
0.100000 0.160000 0
0.120000 0.160000 0
0.140000 0.160000 0
0.160000 0.160000 0
0.180000 0.160000 0
0.200000 0.160000 0
0.220000 0.160000 0
0.240000 0.160000 0
0.260000 0.160000 0
0.280000 0.160000 0
0.300000 0.160000 0
0.320000 0.160000 0
0.340000 0.160000 0
0.360000 0.160000 0
0.380000 0.160000 0
0.400000 0.160000 0
0.420000 0.160000 0
0.440000 0.160000 0
0.460000 0.160000 0
0.480000 0.160000 0
0.500000 0.160000 0
0.520000 0.160000 0
0.540000 0.160000 0
0.560000 0.160000 0
0.580000 0.160000 0
0.600000 0.160000 0
0.620000 0.160000 0
0.640000 0.160000 0
0.660000 0.160000 0
0.680000 0.160000 0
0.700000 0.160000 0
0.720000 0.160000 0
0.740000 0.160000 0
0.760000 0.160000 0
0.780000 0.160000 0
0.800000 0.160000 0
0.820000 0.160000 0
0.840000 0.160000 0
0.860000 0.160000 0
0.880000 0.160000 0
0.900000 0.160000 0
0.920000 0.160000 0
0.940000 0.160000 0
0.960000 0.160000 0
0.980000 0.160000 0
1.000000 0.160000 0
0.000000 0.180000 0
0.020000 0.180000 0
0.040000 0.180000 0
0.060000 0.180000 0
0.080000 0.180000 0
0.100000 0.180000 0
0.120000 0.180000 0
0.140000 0.180000 0
0.160000 0.180000 0
0.180000 0.180000 0
0.200000 0.180000 0
0.220000 0.180000 0
0.240000 0.180000 0
0.260000 0.180000 0
0.280000 0.180000 0
0.300000 0.180000 0
0.320000 0.180000 0
0.340000 0.180000 0
0.360000 0.180000 0
0.380000 0.180000 0
0.400000 0.180000 0
0.420000 0.180000 0
0.440000 0.180000 0
0.460000 0.180000 0
0.480000 0.180000 0
0.500000 0.180000 0
0.520000 0.180000 0
0.540000 0.180000 0
0.560000 0.180000 0
0.580000 0.180000 0
0.600000 0.180000 0
0.620000 0.180000 0
[...]
POINT_DATA 2601 

VECTORS velocity float
0.000000 0.000000 0
0.000000 0.000000 0
0.000000 0.000000 0
0.000000 0.000000 0
-0.000000 0.000000 0
-0.000000 0.000000 0
-0.000000 0.000000 0
-0.000000 0.000000 0
-0.000001 0.000000 0
-0.000001 0.000000 0
-0.000001 0.000000 0
-0.000001 0.000000 0
-0.000001 0.000000 0
-0.000001 0.000000 0
-0.000001 0.000000 0
-0.000001 0.000000 0
-0.000000 0.000000 0
-0.000000 0.000000 0
-0.000000 0.000000 0
-0.000000 0.000000 0
-0.000000 0.000000 0
-0.000000 0.000000 0
-0.000000 0.000000 0
0.000000 0.000000 0
0.000000 0.000000 0
0.000000 0.000000 0
0.000000 0.000000 0
0.000000 0.000000 0
0.000000 0.000000 0
0.000000 0.000000 0
0.000000 0.000000 0
0.000000 0.000000 0
0.000000 0.000000 0
0.000000 0.000000 0
0.000000 0.000000 0
0.000000 0.000000 0
0.000000 0.000000 0
0.000000 0.000000 0
0.000000 0.000000 0
0.000000 0.000000 0
0.000000 0.000000 0
0.000000 0.000000 0
0.000000 0.000000 0
0.000000 0.000000 0
0.000000 0.000000 0
0.000000 0.000000 0
0.000000 0.000000 0
0.000000 0.000000 0
0.000000 0.000000 0
0.000000 0.000000 0
0.000000 0.000000 0
0.000000 0.000000 0
-0.000006 0.000009 0
-0.000330 0.000228 0
-0.001047 0.000472 0
-0.002124 0.000675 0
-0.003478 0.000814 0
-0.005000 0.000881 0
-0.006577 0.000880 0
-0.008100 0.000816 0
-0.009473 0.000701 0
-0.010618 0.000546 0
-0.011479 0.000367 0
-0.012019 0.000174 0
-0.012225 -0.000019 0
-0.012099 -0.000205 0
-0.011657 -0.000376 0
-0.010928 -0.000525 0
-0.009949 -0.000651 0
-0.008761 -0.000749 0
-0.007410 -0.000821 0
-0.005941 -0.000866 0
-0.004400 -0.000886 0
-0.002832 -0.000881 0
-0.001275 -0.000856 0
0.000233 -0.000811 0
0.001660 -0.000751 0
0.002979 -0.000679 0
0.004171 -0.000598 0
0.005218 -0.000511 0
0.006110 -0.000419 0
0.006842 -0.000327 0
0.007411 -0.000235 0
0.007818 -0.000146 0
0.008068 -0.000060 0
0.008167 0.000020 0
0.008124 0.000096 0
0.007948 0.000165 0
0.007649 0.000229 0
0.007237 0.000287 0
0.006724 0.000340 0
0.006120 0.000386 0
0.005439 0.000424 0
0.004695 0.000455 0
0.003905 0.000474 0
0.003093 0.000478 0
0.002288 0.000461 0
0.001531 0.000416 0
0.000870 0.000334 0
0.000364 0.000212 0
0.000067 0.000067 0
0.000000 0.000000 0
0.000000 0.000000 0
-0.000213 0.000329 0
-0.001015 0.001040 0
-0.002446 0.001794 0
-0.004444 0.002430 0
-0.006882 0.002875 0
-0.009594 0.003098 0
-0.012398 0.003100 0
-0.015119 0.002896 0
-0.017595 0.002518 0
-0.019696 0.002005 0
-0.021321 0.001400 0
-0.022405 0.000745 0
-0.022918 0.000079 0
-0.022856 -0.000568 0
-0.022242 -0.001171 0
-0.021117 -0.001708 0
-0.019538 -0.002168 0
-0.017572 -0.002540 0
-0.015293 -0.002821 0
-0.012779 -0.003010 0
-0.010108 -0.003110 0
-0.007355 -0.003126 0
-0.004594 -0.003065 0
-0.001888 -0.002935 0
0.000703 -0.002747 0
0.003128 -0.002511 0
0.005345 -0.002239 0
0.007323 -0.001940 0
0.009039 -0.001625 0
0.010477 -0.001301 0
0.011632 -0.000976 0
0.012501 -0.000657 0
0.013089 -0.000349 0
0.013407 -0.000056 0
0.013465 0.000219 0
0.013281 0.000475 0
0.012872 0.000711 0
0.012255 0.000925 0
0.011451 0.001117 0
0.010482 0.001285 0
0.009369 0.001426 0
0.008141 0.001534 0
0.006829 0.001602 0
0.005473 0.001617 0
0.004124 0.001562 0
0.002845 0.001418 0
0.001711 0.001167 0
0.000806 0.000803 0
0.000213 0.000364 0
0.000000 0.000000 0
0.000000 0.000000 0
-0.000441 0.001024 0
-0.001741 0.002461 0
-0.003853 0.003901 0
-0.006672 0.005111 0
-0.010034 0.005963 0
-0.013737 0.006397 0
-0.017559 0.006405 0
-0.021280 0.006013 0
-0.024700 0.005278 0
-0.027649 0.004272 0
-0.029997 0.003076 0
-0.031654 0.001771 0
-0.032573 0.000432 0
-0.032742 -0.000881 0
-0.032181 -0.002115 0
-0.030936 -0.003230 0
-0.029072 -0.004196 0
-0.026669 -0.004995 0
-0.023817 -0.005615 0
-0.020614 -0.006052 0
-0.017159 -0.006309 0
-0.013551 -0.006396 0
-0.009885 -0.006323 0
-0.006249 -0.006108 0
-0.002722 -0.005768 0
0.000623 -0.005322 0
0.003726 -0.004793 0
0.006537 -0.004204 0
0.009020 -0.003574 0
0.011149 -0.002920 0
0.012909 -0.002259 0
0.014294 -0.001604 0
0.015306 -0.000966 0
0.015953 -0.000356 0
0.016250 0.000221 0
0.016214 0.000759 0
0.015868 0.001256 0
0.015236 0.001708 0
0.014345 0.002113 0
0.013223 0.002468 0
0.011903 0.002765 0
0.010418 0.002995 0
0.008813 0.003141 0
0.007138 0.003182 0
0.005454 0.003089 0
0.003837 0.002830 0
0.002376 0.002374 0
0.001172 0.001709 0
0.000338 0.000872 0
0.000000 0.000000 0
0.000000 0.000000 0
-0.000640 0.002070 0
-0.002392 0.004452 0
-0.005125 0.006725 0
-0.008679 0.008611 0
-0.012856 0.009939 0
-0.017424 0.010623 0
-0.022135 0.010643 0
-0.026742 0.010037 0
-0.031016 0.008887 0
-0.034763 0.007301 0
-0.037829 0.005404 0
-0.040107 0.003321 0
-0.041533 0.001167 0
-0.042084 -0.000960 0
-0.041776 -0.002976 0
-0.040649 -0.004818 0
-0.038770 -0.006436 0
-0.036222 -0.007795 0
-0.033102 -0.008876 0
-0.029518 -0.009668 0
-0.025580 -0.010173 0
-0.021402 -0.010400 0
-0.017093 -0.010368 0
-0.012760 -0.010098 0
-0.008499 -0.009619 0
-0.004399 -0.008960 0
-0.000536 -0.008153 0
0.003025 -0.007234 0
0.006229 -0.006236 0
0.009039 -0.005190 0
0.011429 -0.004121 0
0.013386 -0.003054 0
0.014904 -0.002008 0
0.015989 -0.000999 0
0.016654 -0.000041 0
0.016915 0.000857 0
0.016797 0.001688 0
0.016328 0.002448 0
0.015537 0.003130 0
0.014460 0.003727 0
0.013133 0.004231 0
0.011597 0.004624 0
0.009900 0.004883 0
0.008099 0.004976 0
0.006262 0.004863 0
0.004468 0.004497 0
0.002815 0.003833 0
0.001419 0.002842 0
0.000420 0.001536 0
0.000000 0.000000 0
0.000000 0.000000 0
-0.000800 0.003416 0
-0.002941 0.006946 0
-0.006219 0.010188 0
-0.010426 0.012842 0
-0.015330 0.014708 0
-0.020674 0.015676 0
-0.026190 0.015722 0
-0.031611 0.014894 0
-0.036692 0.013299 0
-0.041220 0.011085 0
-0.045025 0.008420 0
-0.047983 0.005474 0
-0.050018 0.002409 0
-0.051095 -0.000638 0
-0.051218 -0.003550 0
-0.050421 -0.006236 0
-0.048766 -0.008624 0
-0.046330 -0.010663 0
-0.043212 -0.012318 0
-0.039519 -0.013574 0
-0.035365 -0.014425 0
-0.030871 -0.014883 0
-0.026155 -0.014965 0
-0.021335 -0.014702 0
-0.016521 -0.014128 0
-0.011815 -0.013285 0
-0.007309 -0.012217 0
-0.003080 -0.010970 0
0.000804 -0.009588 0
0.004289 -0.008120 0
0.007336 -0.006605 0
0.009918 -0.005078 0
0.012025 -0.003570 0
0.013653 -0.002105 0
0.014811 -0.000704 0
0.015513 0.000616 0
0.015780 0.001843 0
0.015641 0.002967 0
0.015129 0.003981 0
0.014280 0.004873 0
0.013133 0.005629 0
0.011732 0.006228 0
0.010128 0.006639 0
0.008378 0.006821 0
0.006552 0.006721 0
0.004732 0.006276 0
0.003020 0.005422 0
0.001543 0.004104 0
0.000463 0.002292 0
0.000000 0.000000 0
0.000000 0.000000 0
-0.000925 0.005010 0
-0.003389 0.009871 0
-0.007136 0.014210 0
-0.011915 0.017721 0
-0.017466 0.020187 0
-0.023512 0.021483 0
-0.029769 0.021580 0
-0.035957 0.020539 0
-0.041818 0.018495 0
-0.047127 0.015634 0
-0.051702 0.012168 0
-0.055406 0.008314 0
-0.058150 0.004278 0
-0.059886 0.000240 0
-0.060604 -0.003650 0
-0.060330 -0.007271 0
-0.059112 -0.010527 0
-0.057022 -0.013349 0
-0.054147 -0.015688 0
-0.050590 -0.017515 0
-0.046464 -0.018821 0
-0.041887 -0.019610 0
-0.036982 -0.019903 0
-0.031871 -0.019732 0
-0.026673 -0.019138 0
-0.021502 -0.018172 0
-0.016461 -0.016889 0
-0.011643 -0.015347 0
-0.007127 -0.013605 0
-0.002980 -0.011721 0
0.000743 -0.009750 0
0.004003 -0.007743 0
0.006776 -0.005743 0
0.009048 -0.003786 0
0.010820 -0.001901 0
0.012100 -0.000112 0
0.012905 0.001560 0
0.013259 0.003098 0
0.013195 0.004491 0
0.012747 0.005724 0
0.011957 0.006779 0
0.010867 0.007629 0
0.009528 0.008237 0
0.007997 0.008552 0
0.006340 0.008509 0
0.004640 0.008028 0
0.002999 0.007022 0
0.001551 0.005399 0
0.000471 0.003079 0
0.000000 0.000000 0
0.000000 0.000000 0
-0.001022 0.006805 0
-0.003749 0.013157 0
-0.007888 0.018713 0
-0.013162 0.023172 0
-0.019285 0.026305 0
-0.025966 0.027979 0
-0.032908 0.028166 0
-0.039822 0.026942 0
-0.046443 0.024468 0
-0.052537 0.020969 0
-0.057914 0.016699 0
-0.062426 0.011922 0
-0.065970 0.006888 0
-0.068486 0.001816 0
-0.069949 -0.003106 0
-0.070371 -0.007728 0
-0.069786 -0.011933 0
-0.068251 -0.015628 0
-0.065842 -0.018750 0
-0.062649 -0.021257 0
-0.058775 -0.023129 0
-0.054334 -0.024365 0
-0.049445 -0.024981 0
-0.044232 -0.025010 0
-0.038816 -0.024497 0
-0.033319 -0.023498 0
-0.027854 -0.022077 0
-0.022526 -0.020304 0
-0.017428 -0.018251 0
-0.012642 -0.015989 0
-0.008234 -0.013588 0
-0.004258 -0.011111 0
-0.000753 -0.008615 0
0.002255 -0.006149 0
0.004754 -0.003756 0
0.006744 -0.001470 0
0.008232 0.000684 0
0.009237 0.002678 0
0.009783 0.004493 0
0.009906 0.006111 0
0.009642 0.007509 0
0.009034 0.008656 0
0.008127 0.009509 0
0.006976 0.010009 0
0.005643 0.010077 0
0.004206 0.009617 0
0.002765 0.008512 0
0.001452 0.006633 0
0.000447 0.003842 0
0.000000 0.000000 0
0.000000 0.000000 0
-0.001096 0.008758 0
-0.004032 0.016737 0
-0.008495 0.023622 0
-0.014188 0.029118 0
-0.020810 0.032992 0
-0.028059 0.035105 0
-0.035629 0.035435 0
-0.043227 0.034074 0
-0.050585 0.031210 0
-0.057464 0.027105 0
-0.063666 0.022056 0
-0.069035 0.016370 0
-0.073459 0.010338 0
-0.076860 0.004219 0
-0.079200 -0.001765 0
-0.080473 -0.007434 0
-0.080696 -0.012647 0
-0.079908 -0.017293 0
-0.078167 -0.021290 0
-0.075549 -0.024582 0
-0.072141 -0.027135 0
-0.068045 -0.028940 0
-0.063372 -0.030006 0
-0.058241 -0.030361 0
-0.052774 -0.030051 0
-0.047095 -0.029135 0
-0.041324 -0.027682 0
-0.035575 -0.025773 0
-0.029956 -0.023489 0
-0.024560 -0.020915 0
-0.019470 -0.018134 0
-0.014755 -0.015224 0
-0.010468 -0.012256 0
-0.006649 -0.009293 0
-0.003323 -0.006390 0
-0.000506 -0.003590 0
0.001802 -0.000933 0
0.003608 0.001547 0
0.004927 0.003822 0
0.005784 0.005865 0
0.006213 0.007651 0
0.006252 0.009144 0
0.005943 0.010294 0
0.005331 0.011036 0
0.004475 0.011279 0
0.003442 0.010907 0
0.002326 0.009776 0
0.001253 0.007716 0
0.000396 0.004531 0
0.000000 0.000000 0
0.000000 0.000001 0
-0.001151 0.010836 0
-0.004249 0.020555 0
-0.008972 0.028869 0
-0.015012 0.035487 0
-0.022061 0.040176 0
-0.029808 0.042797 0
-0.037946 0.043335 0
-0.046182 0.041898 0
-0.054244 0.038704 0
-0.061895 0.034049 0
-0.068932 0.028270 0
-0.075193 0.021715 0
-0.080554 0.014712 0
-0.084927 0.007557 0
-0.088255 0.000507 0
-0.090511 -0.006233 0
-0.091694 -0.012498 0
-0.091824 -0.018156 0
-0.090937 -0.023109 0
-0.089088 -0.027284 0
-0.086346 -0.030633 0
-0.082797 -0.033134 0
-0.078536 -0.034785 0
-0.073674 -0.035608 0
-0.068328 -0.035643 0
-0.062619 -0.034948 0
-0.056671 -0.033597 0
-0.050606 -0.031672 0
-0.044540 -0.029266 0
-0.038583 -0.026475 0
-0.032829 -0.023393 0
-0.027366 -0.020114 0
-0.022261 -0.016721 0
-0.017572 -0.013294 0
-0.013340 -0.009899 0
-0.009593 -0.006595 0
-0.006345 -0.003431 0
-0.003600 -0.000447 0
-0.001357 0.002317 0
0.000395 0.004824 0
0.001682 0.007041 0
0.002533 0.008927 0
0.002983 0.010430 0
0.003070 0.011477 0
0.002841 0.011967 0
0.002355 0.011765 0
0.001689 0.010702 0
0.000957 0.008563 0
0.000318 0.005095 0
0.000000 0.000000 0
0.000000 0.000001 0
-0.001190 0.013007 0
-0.004409 0.024558 0
-0.009334 0.034386 0
-0.015653 0.042207 0
-0.023055 0.047787 0
-0.031229 0.050990 0
-0.039869 0.051809 0
-0.048686 0.050372 0
-0.057410 0.046923 0
-0.065805 0.041792 0
-0.073668 0.035354 0
-0.080832 0.027993 0
-0.087168 0.020072 0
-0.092572 0.011920 0
-0.096972 0.003819 0
-0.100318 -0.003996 0
-0.102591 -0.011335 0
-0.103786 -0.018050 0
-0.103918 -0.024026 0
-0.103017 -0.029173 0
-0.101129 -0.033427 0
-0.098318 -0.036750 0
-0.094663 -0.039128 0
-0.090258 -0.040570 0
-0.085210 -0.041107 0
-0.079633 -0.040792 0
-0.073652 -0.039695 0
-0.067392 -0.037903 0
-0.060976 -0.035512 0
-0.054524 -0.032626 0
-0.048148 -0.029351 0
-0.041947 -0.025792 0
-0.036010 -0.022049 0
-0.030410 -0.018214 0
-0.025207 -0.014369 0
-0.020444 -0.010586 0
-0.016153 -0.006925 0
-0.012352 -0.003440 0
-0.009049 -0.000174 0
-0.006248 0.002826 0
-0.003944 0.005513 0
-0.002119 0.007843 0
-0.000748 0.009757 0
0.000196 0.011178 0
0.000746 0.011995 0
0.000946 0.012059 0
0.000856 0.011174 0
0.000567 0.009088 0
0.000214 0.005488 0
0.000000 0.000000 0
0.000000 0.000001 0
-0.001215 0.015244 0
-0.004519 0.028699 0
-0.009592 0.040112 0
-0.016124 0.049207 0
-0.023807 0.055751 0
-0.032335 0.059612 0
-0.041407 0.060792 0
-0.050739 0.059439 0
-0.060068 0.055823 0
-0.069162 0.050306 0
-0.077821 0.043298 0
-0.085878 0.035215 0
-0.093195 0.026451 0
-0.099661 0.017361 0
-0.105187 0.008253 0
-0.109706 -0.000614 0
-0.113170 -0.009030 0
-0.115552 -0.016830 0
-0.116842 -0.023879 0
-0.117046 -0.030073 0
-0.116184 -0.035332 0
-0.114295 -0.039600 0
-0.111433 -0.042845 0
-0.107673 -0.045062 0
-0.103105 -0.046268 0
-0.097835 -0.046506 0
-0.091979 -0.045838 0
-0.085662 -0.044349 0
-0.079012 -0.042134 0
-0.072157 -0.039303 0
-0.065222 -0.035970 0
-0.058321 -0.032251 0
-0.051560 -0.028258 0
-0.045032 -0.024097 0
-0.038814 -0.019865 0
-0.032969 -0.015649 0
-0.027548 -0.011523 0
-0.022586 -0.007550 0
-0.018108 -0.003786 0
-0.014127 -0.000281 0
-0.010656 0.002911 0
-0.007699 0.005731 0
-0.005249 0.008116 0
-0.003293 0.009983 0
-0.001813 0.011217 0
-0.000786 0.011655 0
-0.000176 0.011081 0
0.000079 0.009205 0
0.000083 0.005662 0
0.000000 0.000000 0
0.000000 0.000001 0
-0.001229 0.017525 0
-0.004584 0.032934 0
-0.009755 0.045991 0
-0.016439 0.056422 0
-0.024334 0.063998 0
-0.033141 0.068590 0
-0.042569 0.070213 0
-0.052341 0.069032 0
-0.062206 0.065346 0
-0.071938 0.059545 0
-0.081343 0.052070 0
-0.090255 0.043366 0
-0.098534 0.033855 0
-0.106062 0.023912 0
-0.112737 0.013864 0
-0.118473 0.003987 0
-0.123197 -0.005489 0
-0.126859 -0.014378 0
-0.129422 -0.022531 0
-0.130865 -0.029831 0
-0.131181 -0.036179 0
-0.130379 -0.041502 0
-0.128488 -0.045750 0
-0.125557 -0.048898 0
-0.121657 -0.050945 0
-0.116874 -0.051918 0
-0.111315 -0.051869 0
-0.105098 -0.050871 0
-0.098352 -0.049017 0
-0.091209 -0.046417 0
-0.083804 -0.043188 0
-0.076266 -0.039454 0
-0.068716 -0.035338 0
-0.061267 -0.030961 0
-0.054015 -0.026431 0
-0.047046 -0.021851 0
-0.040430 -0.017308 0
-0.034221 -0.012880 0
-0.028464 -0.008633 0
-0.023191 -0.004626 0
-0.018426 -0.000915 0
-0.014193 0.002436 0
-0.010512 0.005351 0
-0.007391 0.007741 0
-0.004834 0.009488 0
-0.002842 0.010422 0
-0.001408 0.010309 0
-0.000506 0.008829 0
-0.000076 0.005568 0
0.000000 -0.000000 0
0.000000 0.000001 0
-0.001232 0.019828 0
-0.004610 0.037225 0
-0.009835 0.051968 0
-0.016613 0.063786 0
-0.024651 0.072453 0
-0.033662 0.077846 0
-0.043365 0.079992 0
-0.053498 0.079076 0
-0.063818 0.075420 0
-0.074111 0.069443 0
-0.084192 0.061615 0
-0.093898 0.052406 0
-0.103091 0.042258 0
-0.111647 0.031564 0
-0.119458 0.020664 0
-0.126421 0.009847 0
-0.132444 -0.000644 0
-0.137446 -0.010604 0
-0.141364 -0.019873 0
-0.144150 -0.028315 0
-0.145769 -0.035819 0
-0.146202 -0.042293 0
-0.145445 -0.047666 0
-0.143521 -0.051893 0
-0.140471 -0.054951 0
-0.136362 -0.056848 0
-0.131281 -0.057615 0
-0.125337 -0.057312 0
-0.118651 -0.056023 0
-0.111359 -0.053851 0
-0.103599 -0.050914 0
-0.095512 -0.047339 0
-0.087237 -0.043257 0
-0.078902 -0.038798 0
-0.070625 -0.034086 0
-0.062514 -0.029235 0
-0.054659 -0.024348 0
-0.047140 -0.019516 0
-0.040022 -0.014816 0
-0.033357 -0.010318 0
-0.027193 -0.006086 0
-0.021566 -0.002183 0
-0.016518 0.001313 0
-0.012088 0.004306 0
-0.008312 0.006668 0
-0.005221 0.008230 0
-0.002841 0.008745 0
-0.001192 0.007873 0
-0.000264 0.005156 0
0.000000 -0.000000 0
0.000000 0.000001 0
-0.001226 0.022134 0
-0.004601 0.041537 0
-0.009839 0.057994 0
-0.016658 0.071239 0
-0.024775 0.081047 0
-0.033916 0.087304 0
-0.043815 0.090048 0
-0.054221 0.089485 0
-0.064908 0.085959 0
-0.075673 0.079919 0
-0.086341 0.071856 0
-0.096758 0.062265 0
-0.106789 0.051604 0
-0.116311 0.040279 0
-0.125210 0.028637 0
-0.133372 0.016973 0
-0.140689 0.005536 0
-0.147055 -0.005458 0
-0.152376 -0.015827 0
-0.156579 -0.025425 0
-0.159599 -0.034128 0
-0.161387 -0.041826 0
-0.161908 -0.048431 0
-0.161151 -0.053872 0
-0.159128 -0.058104 0
-0.155877 -0.061108 0
-0.151462 -0.062894 0
-0.145974 -0.063501 0
-0.139523 -0.062995 0
-0.132239 -0.061469 0
-0.124263 -0.059034 0
-0.115745 -0.055816 0
-0.106833 -0.051949 0
-0.097675 -0.047572 0
-0.088411 -0.042819 0
-0.079167 -0.037817 0
-0.070059 -0.032682 0
-0.061190 -0.027518 0
-0.052650 -0.022416 0
-0.044516 -0.017455 0
-0.036858 -0.012706 0
-0.029738 -0.008238 0
-0.023216 -0.004127 0
-0.017358 -0.000465 0
-0.012232 0.002621 0
-0.007913 0.004951 0
-0.004471 0.006280 0
-0.001976 0.006252 0
-0.000480 0.004376 0
0.000000 -0.000000 0
0.000000 0.000001 0
-0.001212 0.024428 0
-0.004563 0.045839 0
-0.009778 0.064024 0
-0.016588 0.078722 0
-0.024724 0.089712 0
-0.033925 0.096885 0
-0.043938 0.100296 0
-0.054529 0.100168 0
-0.065488 0.096872 0
-0.076625 0.090877 0
-0.087779 0.082700 0
-0.098805 0.072854 0
-0.109575 0.061811 0
-0.119971 0.049985 0
-0.129875 0.037725 0
-0.139171 0.025326 0
-0.147737 0.013039 0
-0.155452 0.001083 0
-0.162190 -0.010348 0
-0.167846 -0.021092 0
-0.172330 -0.031011 0
-0.175562 -0.039984 0
-0.177477 -0.047902 0
-0.178028 -0.054673 0
-0.177193 -0.060226 0
-0.174977 -0.064513 0
-0.171415 -0.067518 0
-0.166572 -0.069251 0
-0.160542 -0.069758 0
-0.153442 -0.069111 0
-0.145411 -0.067408 0
-0.136600 -0.064769 0
-0.127170 -0.061326 0
-0.117281 -0.057220 0
-0.107092 -0.052595 0
-0.096753 -0.047586 0
-0.086405 -0.042324 0
-0.076176 -0.036925 0
-0.066180 -0.031490 0
-0.056523 -0.026110 0
-0.047300 -0.020864 0
-0.038601 -0.015825 0
-0.030514 -0.011067 0
-0.023133 -0.006678 0
-0.016556 -0.002777 0
-0.010900 0.000469 0
-0.006289 0.002808 0
-0.002855 0.003882 0
-0.000725 0.003180 0
0.000000 -0.000000 0
0.000000 0.000001 0
-0.001192 0.026697 0
-0.004500 0.050103 0
-0.009662 0.070019 0
-0.016419 0.086185 0
-0.024519 0.098383 0
-0.033711 0.106517 0
-0.043760 0.110653 0
-0.054448 0.111035 0
-0.065581 0.108055 0
-0.076984 0.102210 0
-0.088511 0.094036 0
-0.100028 0.084062 0
-0.111420 0.072770 0
-0.122571 0.060579 0
-0.133371 0.047837 0
-0.143701 0.034835 0
-0.153433 0.021816 0
-0.162434 0.008995 0
-0.170559 -0.003432 0
-0.177668 -0.015285 0
-0.183641 -0.026412 0
-0.188371 -0.036679 0
-0.191763 -0.045965 0
-0.193735 -0.054156 0
-0.194227 -0.061155 0
-0.193208 -0.066886 0
-0.190678 -0.071298 0
-0.186671 -0.074373 0
-0.181254 -0.076125 0
-0.174528 -0.076600 0
-0.166620 -0.075876 0
-0.157680 -0.074057 0
-0.147872 -0.071269 0
-0.137370 -0.067650 0
-0.126349 -0.063346 0
-0.114983 -0.058503 0
-0.103435 -0.053260 0
-0.091861 -0.047744 0
-0.080404 -0.042069 0
-0.069197 -0.036335 0
-0.058365 -0.030628 0
-0.048027 -0.025023 0
-0.038304 -0.019595 0
-0.029320 -0.014423 0
-0.021213 -0.009612 0
-0.014137 -0.005316 0
-0.008273 -0.001765 0
-0.003822 0.000688 0
-0.000996 0.001521 0
0.000000 -0.000001 0
0.000000 0.000001 0
-0.001168 0.028928 0
-0.004417 0.054308 0
-0.009498 0.075943 0
-0.016166 0.093579 0
-0.024179 0.107003 0
-0.033300 0.116127 0
-0.043312 0.121034 0
-0.054010 0.121989 0
-0.065218 0.119408 0
-0.076779 0.113807 0
-0.088558 0.105744 0
-0.100440 0.095763 0
-0.112318 0.084354 0
-0.124089 0.071936 0
-0.135647 0.058854 0
-0.146878 0.045388 0
-0.157656 0.031772 0
-0.167838 0.018209 0
-0.177271 0.004886 0
-0.185793 -0.008010 0
-0.193242 -0.020308 0
-0.199486 -0.031862 0
-0.204400 -0.042539 0
-0.207870 -0.052209 0
-0.209800 -0.060752 0
-0.210119 -0.068062 0
-0.208786 -0.074055 0
-0.205797 -0.078675 0
-0.201189 -0.081901 0
-0.195035 -0.083745 0
-0.187443 -0.084257 0
-0.178554 -0.083517 0
-0.168533 -0.081636 0
-0.157561 -0.078743 0
-0.145829 -0.074981 0
-0.133529 -0.070500 0
-0.120851 -0.065446 0
-0.107978 -0.059956 0
-0.095082 -0.054154 0
-0.082329 -0.048149 0
-0.069872 -0.042034 0
-0.057865 -0.035886 0
-0.046460 -0.029774 0
-0.035819 -0.023770 0
-0.026119 -0.017959 0
-0.017563 -0.012471 0
-0.010385 -0.007507 0
-0.004859 -0.003395 0
-0.001290 -0.000642 0
0.000000 -0.000001 0
0.000000 0.000001 0
-0.001140 0.031113 0
-0.004318 0.058433 0
-0.009298 0.081768 0
-0.015844 0.100865 0
-0.023726 0.115517 0
-0.032722 0.125650 0
-0.042625 0.131362 0
-0.053252 0.132941 0
-0.064438 0.130824 0
-0.076046 0.125551 0
-0.087957 0.117697 0
-0.100069 0.107821 0
-0.112289 0.096419 0
-0.124527 0.083908 0
-0.136686 0.070627 0
-0.148662 0.056843 0
-0.160331 0.042775 0
-0.171554 0.028610 0
-0.182172 0.014522 0
-0.192011 0.000685 0
-0.200884 -0.012718 0
-0.208614 -0.025521 0
-0.215054 -0.037581 0