# vtk DataFile Version 2.0
generated by CFD-lab course output (written by Tobias Neckel) 
ASCII

DATASET STRUCTURED_GRID
DIMENSIONS  51 51 1 
POINTS 2601 float

0.000000 0.000000 0
0.020000 0.000000 0
0.040000 0.000000 0
0.060000 0.000000 0
0.080000 0.000000 0
0.100000 0.000000 0
0.120000 0.000000 0
0.140000 0.000000 0
0.160000 0.000000 0
0.180000 0.000000 0
0.200000 0.000000 0
0.220000 0.000000 0
0.240000 0.000000 0
0.260000 0.000000 0
0.280000 0.000000 0
0.300000 0.000000 0
0.320000 0.000000 0
0.340000 0.000000 0
0.360000 0.000000 0
0.380000 0.000000 0
0.400000 0.000000 0
0.420000 0.000000 0
0.440000 0.000000 0
0.460000 0.000000 0
0.480000 0.000000 0
0.500000 0.000000 0
0.520000 0.000000 0
0.540000 0.000000 0
0.560000 0.000000 0
0.580000 0.000000 0
0.600000 0.000000 0
0.620000 0.000000 0
0.640000 0.000000 0
0.660000 0.000000 0
0.680000 0.000000 0
0.700000 0.000000 0
0.720000 0.000000 0
0.740000 0.000000 0
0.760000 0.000000 0
0.780000 0.000000 0
0.800000 0.000000 0
0.820000 0.000000 0
0.840000 0.000000 0
0.860000 0.000000 0
0.880000 0.000000 0
0.900000 0.000000 0
0.920000 0.000000 0
0.940000 0.000000 0
0.960000 0.000000 0
0.980000 0.000000 0
1.000000 0.000000 0
0.000000 0.020000 0
0.020000 0.020000 0
0.040000 0.020000 0
0.060000 0.020000 0
0.080000 0.020000 0
0.100000 0.020000 0
0.120000 0.020000 0
0.140000 0.020000 0
0.160000 0.020000 0
0.180000 0.020000 0
0.200000 0.020000 0
0.220000 0.020000 0
0.240000 0.020000 0
0.260000 0.020000 0
0.280000 0.020000 0
0.300000 0.020000 0
0.320000 0.020000 0
0.340000 0.020000 0
0.360000 0.020000 0
0.380000 0.020000 0
0.400000 0.020000 0
0.420000 0.020000 0
0.440000 0.020000 0
0.460000 0.020000 0
0.480000 0.020000 0
0.500000 0.020000 0
0.520000 0.020000 0
0.540000 0.020000 0
0.560000 0.020000 0
0.580000 0.020000 0
0.600000 0.020000 0
0.620000 0.020000 0
0.640000 0.020000 0
0.660000 0.020000 0
0.680000 0.020000 0
0.700000 0.020000 0
0.720000 0.020000 0
0.740000 0.020000 0
0.760000 0.020000 0
0.780000 0.020000 0
0.800000 0.020000 0
0.820000 0.020000 0
0.840000 0.020000 0
0.860000 0.020000 0
0.880000 0.020000 0
0.900000 0.020000 0
0.920000 0.020000 0
0.940000 0.020000 0
0.960000 0.020000 0
0.980000 0.020000 0
1.000000 0.020000 0
0.000000 0.040000 0
0.020000 0.040000 0
0.040000 0.040000 0
0.060000 0.040000 0
0.080000 0.040000 0
0.100000 0.040000 0
0.120000 0.040000 0
0.140000 0.040000 0
0.160000 0.040000 0
0.180000 0.040000 0
0.200000 0.040000 0
0.220000 0.040000 0
0.240000 0.040000 0
0.260000 0.040000 0
0.280000 0.040000 0
0.300000 0.040000 0
0.320000 0.040000 0
0.340000 0.040000 0
0.360000 0.040000 0
0.380000 0.040000 0
0.400000 0.040000 0
0.420000 0.040000 0
0.440000 0.040000 0
0.460000 0.040000 0
0.480000 0.040000 0
0.500000 0.040000 0
0.520000 0.040000 0
0.540000 0.040000 0
0.560000 0.040000 0
0.580000 0.040000 0
0.600000 0.040000 0
0.620000 0.040000 0
0.640000 0.040000 0
0.660000 0.040000 0
0.680000 0.040000 0
0.700000 0.040000 0
0.720000 0.040000 0
0.740000 0.040000 0
0.760000 0.040000 0
0.780000 0.040000 0
0.800000 0.040000 0
0.820000 0.040000 0
0.840000 0.040000 0
0.860000 0.040000 0
0.880000 0.040000 0
0.900000 0.040000 0
0.920000 0.040000 0
0.940000 0.040000 0
0.960000 0.040000 0
0.980000 0.040000 0
1.000000 0.040000 0
0.000000 0.060000 0
0.020000 0.060000 0
0.040000 0.060000 0
0.060000 0.060000 0
0.080000 0.060000 0
0.100000 0.060000 0
0.120000 0.060000 0
0.140000 0.060000 0
0.160000 0.060000 0
0.180000 0.060000 0
0.200000 0.060000 0
0.220000 0.060000 0
0.240000 0.060000 0
0.260000 0.060000 0
0.280000 0.060000 0
0.300000 0.060000 0
0.320000 0.060000 0
0.340000 0.060000 0
0.360000 0.060000 0
0.380000 0.060000 0
0.400000 0.060000 0
0.420000 0.060000 0
0.440000 0.060000 0
0.460000 0.060000 0
0.480000 0.060000 0
0.500000 0.060000 0
0.520000 0.060000 0
0.540000 0.060000 0
0.560000 0.060000 0
0.580000 0.060000 0
0.600000 0.060000 0
0.620000 0.060000 0
0.640000 0.060000 0
0.660000 0.060000 0
0.680000 0.060000 0
0.700000 0.060000 0
0.720000 0.060000 0
0.740000 0.060000 0
0.760000 0.060000 0
0.780000 0.060000 0
0.800000 0.060000 0
0.820000 0.060000 0
0.840000 0.060000 0
0.860000 0.060000 0
0.880000 0.060000 0
0.900000 0.060000 0
0.920000 0.060000 0
0.940000 0.060000 0
0.960000 0.060000 0
0.980000 0.060000 0
1.000000 0.060000 0
0.000000 0.080000 0
0.020000 0.080000 0
0.040000 0.080000 0
0.060000 0.080000 0
0.080000 0.080000 0
0.100000 0.080000 0
0.120000 0.080000 0
0.140000 0.080000 0
0.160000 0.080000 0
0.180000 0.080000 0
0.200000 0.080000 0
0.220000 0.080000 0
0.240000 0.080000 0
0.260000 0.080000 0
0.280000 0.080000 0
0.300000 0.080000 0
0.320000 0.080000 0
0.340000 0.080000 0
0.360000 0.080000 0
0.380000 0.080000 0
0.400000 0.080000 0
0.420000 0.080000 0
0.440000 0.080000 0
0.460000 0.080000 0
0.480000 0.080000 0
0.500000 0.080000 0
0.520000 0.080000 0
0.540000 0.080000 0
0.560000 0.080000 0
0.580000 0.080000 0
0.600000 0.080000 0
0.620000 0.080000 0
0.640000 0.080000 0
0.660000 0.080000 0
0.680000 0.080000 0
0.700000 0.080000 0
0.720000 0.080000 0
0.740000 0.080000 0
0.760000 0.080000 0
0.780000 0.080000 0
0.800000 0.080000 0
0.820000 0.080000 0
0.840000 0.080000 0
0.860000 0.080000 0
0.880000 0.080000 0
0.900000 0.080000 0
0.920000 0.080000 0
0.940000 0.080000 0
0.960000 0.080000 0
0.980000 0.080000 0
1.000000 0.080000 0
0.000000 0.100000 0
0.020000 0.100000 0
0.040000 0.100000 0
0.060000 0.100000 0
0.080000 0.100000 0
0.100000 0.100000 0
0.120000 0.100000 0
0.140000 0.100000 0
0.160000 0.100000 0
0.180000 0.100000 0
0.200000 0.100000 0
0.220000 0.100000 0
0.240000 0.100000 0
0.260000 0.100000 0
0.280000 0.100000 0
0.300000 0.100000 0
0.320000 0.100000 0
0.340000 0.100000 0
0.360000 0.100000 0
0.380000 0.100000 0
0.400000 0.100000 0
0.420000 0.100000 0
0.440000 0.100000 0
0.460000 0.100000 0
0.480000 0.100000 0
0.500000 0.100000 0
0.520000 0.100000 0
0.540000 0.100000 0
0.560000 0.100000 0
0.580000 0.100000 0
0.600000 0.100000 0
0.620000 0.100000 0
0.640000 0.100000 0
0.660000 0.100000 0
0.680000 0.100000 0
0.700000 0.100000 0
0.720000 0.100000 0
0.740000 0.100000 0
0.760000 0.100000 0
0.780000 0.100000 0
0.800000 0.100000 0
0.820000 0.100000 0
0.840000 0.100000 0
0.860000 0.100000 0
0.880000 0.100000 0
0.900000 0.100000 0
0.920000 0.100000 0
0.940000 0.100000 0
0.960000 0.100000 0
0.980000 0.100000 0
1.000000 0.100000 0
0.000000 0.120000 0
0.020000 0.120000 0
0.040000 0.120000 0
0.060000 0.120000 0
0.080000 0.120000 0
0.100000 0.120000 0
0.120000 0.120000 0
0.140000 0.120000 0
0.160000 0.120000 0
0.180000 0.120000 0
0.200000 0.120000 0
0.220000 0.120000 0
0.240000 0.120000 0
0.260000 0.120000 0
0.280000 0.120000 0
0.300000 0.120000 0
0.320000 0.120000 0
0.340000 0.120000 0
0.360000 0.120000 0
0.380000 0.120000 0
0.400000 0.120000 0
0.420000 0.120000 0
0.440000 0.120000 0
0.460000 0.120000 0
0.480000 0.120000 0
0.500000 0.120000 0
0.520000 0.120000 0
0.540000 0.120000 0
0.560000 0.120000 0
0.580000 0.120000 0
0.600000 0.120000 0
0.620000 0.120000 0
0.640000 0.120000 0
0.660000 0.120000 0
0.680000 0.120000 0
0.700000 0.120000 0
0.720000 0.120000 0
0.740000 0.120000 0
0.760000 0.120000 0
0.780000 0.120000 0
0.800000 0.120000 0
0.820000 0.120000 0
0.840000 0.120000 0
0.860000 0.120000 0
0.880000 0.120000 0
0.900000 0.120000 0
0.920000 0.120000 0
0.940000 0.120000 0
0.960000 0.120000 0
0.980000 0.120000 0
1.000000 0.120000 0
0.000000 0.140000 0
0.020000 0.140000 0
0.040000 0.140000 0
0.060000 0.140000 0
0.080000 0.140000 0
0.100000 0.140000 0
0.120000 0.140000 0
0.140000 0.140000 0
0.160000 0.140000 0
0.180000 0.140000 0
0.200000 0.140000 0
0.220000 0.140000 0
0.240000 0.140000 0
0.260000 0.140000 0
0.280000 0.140000 0
0.300000 0.140000 0
0.320000 0.140000 0
0.340000 0.140000 0
0.360000 0.140000 0
0.380000 0.140000 0
0.400000 0.140000 0
0.420000 0.140000 0
0.440000 0.140000 0
0.460000 0.140000 0
0.480000 0.140000 0
0.500000 0.140000 0
0.520000 0.140000 0
0.540000 0.140000 0
0.560000 0.140000 0
0.580000 0.140000 0
0.600000 0.140000 0
0.620000 0.140000 0
0.640000 0.140000 0
0.660000 0.140000 0
0.680000 0.140000 0
0.700000 0.140000 0
0.720000 0.140000 0
0.740000 0.140000 0
0.760000 0.140000 0
0.780000 0.140000 0
0.800000 0.140000 0
0.820000 0.140000 0
0.840000 0.140000 0
0.860000 0.140000 0
0.880000 0.140000 0
0.900000 0.140000 0
0.920000 0.140000 0
0.940000 0.140000 0
0.960000 0.140000 0
0.980000 0.140000 0
1.000000 0.140000 0
0.000000 0.160000 0
0.020000 0.160000 0
0.040000 0.160000 0
0.060000 0.160000 0
0.080000 0.160000 0
0.100000 0.160000 0
0.120000 0.160000 0
0.140000 0.160000 0
0.160000 0.160000 0
0.180000 0.160000 0
0.200000 0.160000 0
0.220000 0.160000 0
0.240000 0.160000 0
0.260000 0.160000 0
0.280000 0.160000 0
0.300000 0.160000 0
0.320000 0.160000 0
0.340000 0.160000 0
0.360000 0.160000 0
0.380000 0.160000 0
0.400000 0.160000 0
0.420000 0.160000 0
0.440000 0.160000 0
0.460000 0.160000 0
0.480000 0.160000 0
0.500000 0.160000 0
0.520000 0.160000 0
0.540000 0.160000 0
0.560000 0.160000 0
0.580000 0.160000 0
0.600000 0.160000 0
0.620000 0.160000 0
0.640000 0.160000 0
0.660000 0.160000 0
0.680000 0.160000 0
0.700000 0.160000 0
0.720000 0.160000 0
0.740000 0.160000 0
0.760000 0.160000 0
0.780000 0.160000 0
0.800000 0.160000 0
0.820000 0.160000 0
0.840000 0.160000 0
0.860000 0.160000 0
0.880000 0.160000 0
0.900000 0.160000 0
0.920000 0.160000 0
0.940000 0.160000 0
0.960000 0.160000 0
0.980000 0.160000 0
1.000000 0.160000 0
0.000000 0.180000 0
0.020000 0.180000 0
0.040000 0.180000 0
0.060000 0.180000 0
0.080000 0.180000 0
0.100000 0.180000 0
0.120000 0.180000 0
0.140000 0.180000 0
0.160000 0.180000 0
0.180000 0.180000 0
0.200000 0.180000 0
0.220000 0.180000 0
0.240000 0.180000 0
0.260000 0.180000 0
0.280000 0.180000 0
0.300000 0.180000 0
0.320000 0.180000 0
0.340000 0.180000 0
0.360000 0.180000 0
0.380000 0.180000 0
0.400000 0.180000 0
0.420000 0.180000 0
0.440000 0.180000 0
0.460000 0.180000 0
0.480000 0.180000 0
0.500000 0.180000 0
0.520000 0.180000 0
0.540000 0.180000 0
0.560000 0.180000 0
0.580000 0.180000 0
0.600000 0.180000 0
0.620000 0.180000 0
[...]
POINT_DATA 2601 

VECTORS velocity float
0.000000 0.000000 0
0.000000 0.000000 0
-0.000001 0.000000 0
-0.000001 0.000000 0
-0.000000 0.000000 0
0.000000 0.000000 0
0.000000 0.000000 0
0.000000 0.000000 0
0.000000 0.000000 0
-0.000000 0.000000 0
-0.000000 0.000000 0
-0.000000 0.000000 0
-0.000000 0.000000 0
0.000000 0.000000 0
0.000000 0.000000 0
0.000000 0.000000 0
-0.000000 0.000000 0
-0.000000 0.000000 0
-0.000000 0.000000 0
-0.000000 0.000000 0
-0.000000 0.000000 0
-0.000000 0.000000 0
-0.000000 0.000000 0
-0.000000 0.000000 0
0.000000 0.000000 0
0.000000 0.000000 0
0.000000 0.000000 0
0.000000 0.000000 0
0.000000 0.000000 0
0.000000 0.000000 0
0.000000 0.000000 0
0.000000 0.000000 0
-0.000000 0.000000 0
0.000000 0.000000 0
0.000000 0.000000 0
0.000000 0.000000 0
0.000000 0.000000 0
0.000000 0.000000 0
0.000000 0.000000 0
0.000000 0.000000 0
0.000000 0.000000 0
0.000000 0.000000 0
0.000000 0.000000 0
0.000000 0.000000 0
0.000000 0.000000 0
0.000000 0.000000 0
0.000000 0.000000 0
0.000000 0.000000 0
0.000000 0.000000 0
-0.000000 0.000000 0
0.000000 0.000000 0
0.000000 0.000000 0
-0.000006 0.000010 0
-0.000355 0.000246 0
-0.001127 0.000508 0
-0.002286 0.000727 0
-0.003741 0.000875 0
-0.005375 0.000946 0
-0.007064 0.000942 0
-0.008691 0.000870 0
-0.010151 0.000743 0
-0.011362 0.000575 0
-0.012265 0.000381 0
-0.012826 0.000176 0
-0.013030 -0.000029 0
-0.012885 -0.000225 0
-0.012408 -0.000403 0
-0.011631 -0.000559 0
-0.010594 -0.000689 0
-0.009341 -0.000790 0
-0.007921 -0.000863 0
-0.006380 -0.000908 0
-0.004768 -0.000927 0
-0.003128 -0.000921 0
-0.001503 -0.000893 0
0.000070 -0.000846 0
0.001557 -0.000782 0
0.002932 -0.000707 0
0.004173 -0.000622 0
0.005263 -0.000530 0
0.006194 -0.000436 0
0.006957 -0.000340 0
0.007552 -0.000245 0
0.007981 -0.000153 0
0.008247 -0.000065 0
0.008358 0.000018 0
0.008322 0.000096 0
0.008150 0.000167 0
0.007852 0.000233 0
0.007438 0.000292 0
0.006920 0.000346 0
0.006309 0.000393 0
0.005617 0.000433 0
0.004859 0.000466 0
0.004052 0.000487 0
0.003219 0.000493 0
0.002390 0.000477 0
0.001606 0.000433 0
0.000918 0.000350 0
0.000388 0.000224 0
0.000073 0.000073 0
0.000000 0.000000 0
0.000000 -0.000001 0
-0.000229 0.000354 0
-0.001091 0.001119 0
-0.002629 0.001931 0
-0.004778 0.002615 0
-0.007398 0.003090 0
-0.010308 0.003324 0
-0.013311 0.003316 0
-0.016217 0.003086 0
-0.018852 0.002671 0
-0.021079 0.002114 0
-0.022792 0.001464 0
-0.023927 0.000766 0
-0.024455 0.000059 0
-0.024376 -0.000623 0
-0.023717 -0.001254 0
-0.022525 -0.001814 0
-0.020859 -0.002290 0
-0.018792 -0.002674 0
-0.016403 -0.002961 0
-0.013772 -0.003153 0
-0.010981 -0.003252 0
-0.008108 -0.003265 0
-0.005227 -0.003198 0
-0.002407 -0.003060 0
0.000293 -0.002862 0
0.002821 -0.002615 0
0.005133 -0.002331 0
0.007196 -0.002021 0
0.008989 -0.001694 0
0.010495 -0.001359 0
0.011707 -0.001023 0
0.012626 -0.000694 0
0.013256 -0.000377 0
0.013607 -0.000075 0
0.013692 0.000207 0
0.013528 0.000470 0
0.013131 0.000712 0
0.012523 0.000932 0
0.011721 0.001129 0
0.010748 0.001303 0
0.009626 0.001450 0
0.008382 0.001566 0
0.007049 0.001640 0
0.005665 0.001662 0
0.004283 0.001612 0
0.002965 0.001472 0
0.001791 0.001218 0
0.000848 0.000845 0
0.000226 0.000388 0
0.000000 0.000000 0
0.000000 -0.000001 0
-0.000474 0.001100 0
-0.001869 0.002647 0
-0.004138 0.004197 0
-0.007167 0.005496 0
-0.010778 0.006405 0
-0.014749 0.006859 0
-0.018840 0.006850 0
-0.022814 0.006411 0
-0.026457 0.005605 0
-0.029587 0.004515 0
-0.032071 0.003230 0
-0.033817 0.001839 0
-0.034780 0.000420 0
-0.034952 -0.000963 0
-0.034358 -0.002255 0
-0.033048 -0.003418 0
-0.031094 -0.004421 0
-0.028580 -0.005246 0
-0.025602 -0.005884 0
-0.022261 -0.006330 0
-0.018661 -0.006591 0
-0.014903 -0.006674 0
-0.011085 -0.006594 0
-0.007299 -0.006366 0
-0.003627 -0.006010 0
-0.000141 -0.005546 0
0.003095 -0.004997 0
0.006032 -0.004386 0
0.008630 -0.003734 0
0.010864 -0.003059 0
0.012719 -0.002376 0
0.014189 -0.001701 0
0.015275 -0.001046 0
0.015987 -0.000418 0
0.016339 0.000175 0
0.016349 0.000728 0
0.016041 0.001237 0
0.015438 0.001703 0
0.014568 0.002121 0
0.013459 0.002488 0
0.012143 0.002799 0
0.010655 0.003043 0
0.009037 0.003204 0
0.007340 0.003259 0
0.005626 0.003177 0
0.003971 0.002925 0
0.002468 0.002467 0
0.001223 0.001789 0
0.000354 0.000921 0
0.000000 0.000000 0
0.000000 -0.000000 0
-0.000686 0.002223 0
-0.002566 0.004785 0
-0.005499 0.007230 0
-0.009314 0.009254 0
-0.013795 0.010671 0
-0.018690 0.011385 0
-0.023730 0.011381 0
-0.028648 0.010703 0
-0.033201 0.009444 0
-0.037183 0.007729 0
-0.040434 0.005694 0
-0.042845 0.003474 0
-0.044353 0.001193 0
-0.044941 -0.001045 0
-0.044627 -0.003157 0
-0.043459 -0.005078 0
-0.041506 -0.006758 0
-0.038860 -0.008165 0
-0.035620 -0.009280 0
-0.031899 -0.010094 0
-0.027811 -0.010610 0
-0.023473 -0.010840 0
-0.018999 -0.010801 0
-0.014496 -0.010518 0
-0.010066 -0.010020 0
-0.005798 -0.009338 0
-0.001770 -0.008505 0
0.001949 -0.007555 0
0.005307 -0.006526 0
0.008260 -0.005448 0
0.010785 -0.004348 0
0.012866 -0.003250 0
0.014498 -0.002175 0
0.015688 -0.001139 0
0.016445 -0.000155 0
0.016790 0.000768 0
0.016744 0.001623 0
0.016337 0.002404 0
0.015599 0.003108 0
0.014563 0.003728 0
0.013266 0.004255 0
0.011750 0.004672 0
0.010061 0.004956 0
0.008257 0.005073 0
0.006404 0.004981 0
0.004586 0.004629 0
0.002900 0.003967 0
0.001468 0.002959 0
0.000437 0.001611 0
0.000000 0.000000 0
0.000000 0.000000 0
-0.000856 0.003667 0
-0.003150 0.007461 0
-0.006665 0.010945 0
-0.011175 0.013791 0
-0.016429 0.015780 0
-0.022149 0.016794 0
-0.028044 0.016808 0
-0.033829 0.015882 0
-0.039240 0.014140 0
-0.044054 0.011748 0
-0.048093 0.008892 0
-0.051233 0.005758 0
-0.053396 0.002515 0
-0.054552 -0.000689 0
-0.054711 -0.003738 0
-0.053910 -0.006538 0
-0.052215 -0.009020 0
-0.049711 -0.011132 0
-0.046499 -0.012844 0
-0.042688 -0.014139 0
-0.038399 -0.015017 0
-0.033753 -0.015487 0
-0.028874 -0.015571 0
-0.023881 -0.015299 0
-0.018887 -0.014709 0
-0.013996 -0.013842 0
-0.009303 -0.012744 0
-0.004888 -0.011463 0
-0.000821 -0.010045 0
0.002844 -0.008537 0
0.006066 -0.006982 0
0.008816 -0.005415 0
0.011081 -0.003868 0
0.012859 -0.002365 0
0.014156 -0.000927 0
0.014987 0.000429 0
0.015372 0.001690 0
0.015339 0.002848 0
0.014920 0.003895 0
0.014152 0.004821 0
0.013073 0.005612 0
0.011727 0.006248 0
0.010164 0.006697 0
0.008441 0.006916 0
0.006627 0.006849 0
0.004805 0.006429 0
0.003080 0.005585 0
0.001580 0.004252 0
0.000477 0.002389 0
0.000000 0.000000 0
0.000000 0.000000 0
-0.000988 0.005374 0
-0.003625 0.010595 0
-0.007635 0.015254 0
-0.012750 0.019017 0
-0.018689 0.021644 0
-0.025152 0.023001 0
-0.031832 0.023061 0
-0.038428 0.021899 0
-0.044665 0.019669 0
-0.050308 0.016582 0
-0.055167 0.012873 0
-0.059103 0.008777 0
-0.062026 0.004513 0
-0.063891 0.000270 0
-0.064695 -0.003799 0
-0.064464 -0.007573 0
-0.063254 -0.010957 0
-0.061139 -0.013882 0
-0.058210 -0.016303 0
-0.054572 -0.018194 0
-0.050340 -0.019545 0
-0.045636 -0.020365 0
-0.040585 -0.020674 0
-0.035311 -0.020506 0
-0.029937 -0.019905 0
-0.024576 -0.018921 0
-0.019337 -0.017613 0
-0.014313 -0.016038 0
-0.009589 -0.014259 0
-0.005231 -0.012334 0
-0.001296 -0.010319 0
0.002173 -0.008265 0
0.005151 -0.006219 0
0.007623 -0.004214 0
0.009585 -0.002282 0
0.011046 -0.000447 0
0.012022 0.001271 0
0.012535 0.002856 0
0.012615 0.004295 0
0.012299 0.005576 0
0.011625 0.006680 0
0.010636 0.007581 0
0.009382 0.008242 0
0.007918 0.008610 0
0.006312 0.008616 0
0.004644 0.008176 0
0.003017 0.007192 0
0.001569 0.005562 0
0.000479 0.003191 0
0.000000 0.000000 0
0.000000 0.000000 0
-0.001090 0.007292 0
-0.004002 0.014108 0
-0.008425 0.020070 0
-0.014059 0.024845 0
-0.020599 0.028182 0
-0.027729 0.029936 0
-0.035128 0.030083 0
-0.042488 0.028716 0
-0.049527 0.026021 0
-0.056000 0.022250 0
-0.061708 0.017686 0
-0.066501 0.012616 0
-0.070277 0.007303 0
-0.072976 0.001980 0
-0.074579 -0.003164 0
-0.075100 -0.007978 0
-0.074577 -0.012345 0
-0.073071 -0.016177 0
-0.070658 -0.019411 0
-0.067431 -0.022009 0
-0.063496 -0.023952 0
-0.058965 -0.025242 0
-0.053961 -0.025896 0
-0.048608 -0.025947 0
-0.043032 -0.025444 0
-0.037353 -0.024442 0
-0.031689 -0.023007 0
-0.026147 -0.021212 0
-0.020823 -0.019128 0
-0.015800 -0.016829 0
-0.011150 -0.014386 0
-0.006927 -0.011862 0
-0.003173 -0.009317 0
0.000082 -0.006798 0
0.002824 -0.004351 0
0.005052 -0.002009 0
0.006770 0.000202 0
0.007992 0.002255 0
0.008744 0.004131 0
0.009057 0.005811 0
0.008967 0.007275 0
0.008516 0.008490 0
0.007747 0.009414 0
0.006715 0.009986 0
0.005479 0.010124 0
0.004117 0.009723 0
0.002727 0.008660 0
0.001442 0.006790 0
0.000448 0.003958 0
0.000000 0.000000 0
0.000000 0.000000 0
-0.001167 0.009376 0
-0.004295 0.017929 0
-0.009054 0.025310 0
-0.015124 0.031191 0
-0.022183 0.035314 0
-0.029903 0.037530 0
-0.037957 0.037821 0
-0.046034 0.036298 0
-0.053844 0.033181 0
-0.061141 0.028763 0
-0.067718 0.023374 0
-0.073416 0.017346 0
-0.078122 0.010988 0
-0.081762 0.004572 0
-0.084298 -0.001675 0
-0.085728 -0.007574 0
-0.086072 -0.012986 0
-0.085371 -0.017801 0
-0.083684 -0.021943 0
-0.081086 -0.025356 0
-0.077668 -0.028011 0
-0.073530 -0.029899 0
-0.068783 -0.031031 0
-0.063548 -0.031436 0
-0.057948 -0.031160 0
-0.052107 -0.030264 0
-0.046147 -0.028819 0
-0.040187 -0.026905 0
-0.034333 -0.024606 0
-0.028686 -0.022007 0
-0.023329 -0.019193 0
-0.018335 -0.016242 0
-0.013761 -0.013227 0
-0.009650 -0.010212 0
-0.006030 -0.007252 0
-0.002920 -0.004393 0
-0.000324 -0.001670 0
0.001763 0.000881 0
0.003352 0.003231 0
0.004465 0.005352 0
0.005134 0.007221 0
0.005394 0.008801 0
0.005284 0.010043 0
0.004850 0.010878 0
0.004146 0.011214 0
0.003239 0.010928 0
0.002219 0.009866 0
0.001210 0.007840 0
0.000388 0.004634 0
0.000000 0.000000 0
0.000000 0.000000 0
-0.001223 0.011588 0
-0.004517 0.021995 0
-0.009541 0.030898 0
-0.015967 0.037974 0
-0.023463 0.042961 0
-0.031696 0.045711 0
-0.040338 0.046214 0
-0.049074 0.044603 0
-0.057618 0.041127 0
-0.065719 0.036123 0
-0.073169 0.029962 0
-0.079802 0.023020 0
-0.085494 0.015649 0
-0.090158 0.008156 0
-0.093737 0.000802 0
-0.096208 -0.006205 0
-0.097570 -0.012703 0
-0.097846 -0.018565 0
-0.097072 -0.023695 0
-0.095303 -0.028025 0
-0.092606 -0.031509 0
-0.089067 -0.034126 0
-0.084782 -0.035877 0
-0.079859 -0.036783 0
-0.074416 -0.036885 0
-0.068574 -0.036242 0
-0.062460 -0.034927 0
-0.056195 -0.033025 0
-0.049900 -0.030629 0
-0.043685 -0.027834 0
-0.037650 -0.024737 0
-0.031885 -0.021430 0
-0.026462 -0.018002 0
-0.021442 -0.014529 0
-0.016870 -0.011080 0
-0.012779 -0.007715 0
-0.009187 -0.004482 0
-0.006102 -0.001421 0
-0.003523 0.001428 0
-0.001445 0.004029 0
0.000151 0.006346 0
0.001292 0.008341 0
0.002009 0.009958 0
0.002339 0.011124 0
0.002325 0.011735 0
0.002020 0.011651 0
0.001501 0.010689 0
0.000875 0.008621 0
0.000299 0.005167 0
0.000000 0.000000 0
0.000000 -0.000000 0
-0.001261 0.013892 0
-0.004675 0.026247 0
-0.009901 0.036761 0
-0.016606 0.045113 0
-0.024459 0.051044 0
-0.033126 0.054405 0
-0.042281 0.055199 0
-0.051613 0.053578 0
-0.060839 0.049826 0
-0.069710 0.044314 0
-0.078018 0.037457 0
-0.085592 0.029671 0
-0.092300 0.021344 0
-0.098042 0.012815 0
-0.102744 0.004375 0
-0.106358 -0.003741 0
-0.108866 -0.011347 0
-0.110265 -0.018300 0
-0.110566 -0.024486 0
-0.109802 -0.029822 0
-0.108016 -0.034247 0
-0.105270 -0.037723 0
-0.101642 -0.040239 0
-0.097224 -0.041802 0
-0.092122 -0.042445 0
-0.086450 -0.042220 0
-0.080332 -0.041198 0
-0.073894 -0.039464 0
-0.067263 -0.037116 0
-0.060560 -0.034257 0
-0.053898 -0.030993 0
-0.047384 -0.027431 0
-0.041107 -0.023670 0
-0.035147 -0.019804 0
-0.029566 -0.015915 0
-0.024415 -0.012076 0
-0.019729 -0.008348 0
-0.015531 -0.004783 0
-0.011833 -0.001426 0
-0.008642 0.001679 0
-0.005959 0.004484 0
-0.003772 0.006942 0
-0.002063 0.008995 0
-0.000807 0.010563 0
0.000024 0.011533 0
0.000467 0.011752 0
0.000578 0.011011 0
0.000440 0.009043 0
0.000182 0.005509 0
0.000000 0.000000 0
0.000000 -0.000000 0
-0.001284 0.016262 0
-0.004778 0.030635 0
-0.010146 0.042830 0
-0.017060 0.052532 0
-0.025190 0.059481 0
-0.034210 0.063533 0
-0.043798 0.064701 0
-0.053653 0.063161 0
-0.063496 0.059225 0
-0.073086 0.053302 0
-0.082214 0.045844 0
-0.090710 0.037303 0
-0.098435 0.028098 0
-0.105278 0.018599 0
-0.111151 0.009119 0
-0.115985 -0.000082 0
-0.119733 -0.008797 0
-0.122368 -0.016865 0
-0.123881 -0.024158 0
-0.124274 -0.030576 0
-0.123567 -0.036041 0
-0.121794 -0.040500 0
-0.119010 -0.043923 0
-0.115286 -0.046304 0
-0.110710 -0.047660 0
-0.105386 -0.048032 0
-0.099429 -0.047483 0
-0.092965 -0.046094 0
-0.086123 -0.043964 0
-0.079032 -0.041199 0
-0.071819 -0.037913 0
-0.064603 -0.034222 0
-0.057492 -0.030238 0
-0.050585 -0.026070 0
-0.043963 -0.021812 0
-0.037695 -0.017553 0
-0.031837 -0.013366 0
-0.026429 -0.009317 0
-0.021501 -0.005460 0
-0.017073 -0.001845 0
-0.013160 0.001477 0
-0.009773 0.004445 0
-0.006915 0.006993 0
-0.004577 0.009037 0
-0.002749 0.010461 0
-0.001416 0.011096 0
-0.000548 0.010716 0
-0.000094 0.009017 0
0.000037 0.005607 0
0.000000 -0.000000 0
0.000000 -0.000000 0
-0.001295 0.018670 0
-0.004833 0.035110 0
-0.010290 0.049043 0
-0.017344 0.060157 0
-0.025676 0.068193 0
-0.034965 0.073013 0
-0.044904 0.074641 0
-0.055198 0.073276 0
-0.065582 0.069259 0
-0.075820 0.063032 0
-0.085711 0.055082 0
-0.095084 0.045893 0
-0.103798 0.035912 0
-0.111733 0.025530 0
-0.118789 0.015081 0
-0.124880 0.004841 0
-0.129929 -0.004964 0
-0.133887 -0.014151 0
-0.136717 -0.022580 0
-0.138394 -0.030136 0
-0.138910 -0.036727 0
-0.138272 -0.042280 0
-0.136505 -0.046747 0
-0.133656 -0.050102 0
-0.129792 -0.052345 0
-0.124997 -0.053501 0
-0.119376 -0.053619 0
-0.113047 -0.052771 0
-0.106137 -0.051049 0
-0.098782 -0.048560 0
-0.091115 -0.045422 0
-0.083271 -0.041757 0
-0.075373 -0.037688 0
-0.067538 -0.033333 0
-0.059868 -0.028804 0
-0.052453 -0.024202 0
-0.045368 -0.019614 0
-0.038675 -0.015118 0
-0.032425 -0.010781 0
-0.026655 -0.006662 0
-0.021396 -0.002816 0
-0.016676 0.000697 0
-0.012521 0.003799 0
-0.008953 0.006397 0
-0.005983 0.008372 0
-0.003623 0.009550 0
-0.001875 0.009690 0
-0.000728 0.008458 0
-0.000136 0.005414 0
0.000000 -0.000000 0
0.000000 0.000000 0
-0.001294 0.021095 0
-0.004846 0.039631 0
-0.010342 0.055341 0
-0.017475 0.067918 0
-0.025933 0.077102 0
-0.035412 0.082761 0
-0.045614 0.084934 0
-0.056260 0.083839 0
-0.067096 0.079847 0
-0.077898 0.073430 0
-0.088472 0.065107 0
-0.098652 0.055390 0
-0.108297 0.044748 0
-0.117284 0.033591 0
-0.125500 0.022265 0
-0.132845 0.011058 0
-0.139225 0.000211 0
-0.144556 -0.010077 0
-0.148774 -0.019651 0
-0.151831 -0.028382 0
-0.153687 -0.036163 0
-0.154321 -0.042905 0
-0.153729 -0.048538 0
-0.151926 -0.053017 0
-0.148952 -0.056319 0
-0.144870 -0.058447 0
-0.139765 -0.059433 0
-0.133744 -0.059333 0
-0.126928 -0.058229 0
-0.119450 -0.056220 0
-0.111453 -0.053423 0
-0.103078 -0.049964 0
-0.094465 -0.045971 0
-0.085748 -0.041575 0
-0.077050 -0.036897 0
-0.068483 -0.032053 0
-0.060142 -0.027144 0
-0.052114 -0.022260 0
-0.044470 -0.017480 0
-0.037271 -0.012873 0
-0.030570 -0.008502 0
-0.024411 -0.004430 0
-0.018841 -0.000731 0
-0.013908 0.002500 0
-0.009660 0.005131 0
-0.006144 0.006988 0
-0.003399 0.007821 0
-0.001459 0.007278 0
-0.000337 0.004880 0
0.000000 -0.000000 0
0.000000 0.000000 0
-0.001283 0.023516 0
-0.004821 0.044159 0
-0.010315 0.061672 0
-0.017467 0.075748 0
-0.025983 0.086130 0
-0.035571 0.092693 0
-0.045949 0.095489 0
-0.056854 0.094758 0
-0.068047 0.090897 0
-0.079316 0.084408 0
-0.090477 0.075836 0
-0.101373 0.065718 0
-0.111864 0.054543 0
-0.121828 0.042733 0
-0.131147 0.030642 0
-0.139708 0.018565 0
-0.147403 0.006747 0
-0.154120 -0.004602 0
-0.159765 -0.015306 0
-0.164263 -0.025223 0
-0.167546 -0.034236 0
-0.169564 -0.042238 0
-0.170278 -0.049143 0
-0.169674 -0.054879 0
-0.167759 -0.059401 0
-0.164569 -0.062687 0
-0.160164 -0.064745 0
-0.154632 -0.065609 0
-0.148083 -0.065343 0
-0.140644 -0.064035 0
-0.132457 -0.061795 0
-0.123673 -0.058744 0
-0.114444 -0.055017 0
-0.104918 -0.050748 0
-0.095240 -0.046070 0
-0.085541 -0.041110 0
-0.075943 -0.035982 0
-0.066555 -0.030790 0
-0.057472 -0.025624 0
-0.048779 -0.020563 0
-0.040554 -0.015676 0
-0.032868 -0.011032 0
-0.025789 -0.006704 0
-0.019390 -0.002783 0
-0.013751 0.000608 0
-0.008960 0.003289 0
-0.005108 0.005005 0
-0.002284 0.005397 0
-0.000566 0.003955 0
0.000000 -0.000000 0
0.000000 0.000000 0
-0.001265 0.025917 0
-0.004766 0.048663 0
-0.010218 0.067987 0
-0.017339 0.083586 0
-0.025847 0.095205 0
-0.035467 0.102726 0
-0.045936 0.106217 0
-0.057005 0.105937 0
-0.068453 0.102308 0
-0.080082 0.095860 0
-0.091721 0.087164 0
-0.103221 0.076777 0
-0.114452 0.065203 0
-0.125291 0.052873 0
-0.135621 0.040145 0
-0.145322 0.027313 0
-0.154273 0.014623 0
-0.162349 0.002286 0
-0.169425 -0.009509 0
-0.175389 -0.020601 0
-0.180151 -0.030862 0
-0.183630 -0.040173 0
-0.185756 -0.048428 0
-0.186481 -0.055536 0
-0.185778 -0.061424 0
-0.183648 -0.066042 0
-0.180124 -0.069370 0
-0.175266 -0.071415 0
-0.169166 -0.072217 0
-0.161940 -0.071846 0
-0.153726 -0.070394 0
-0.144676 -0.067977 0
-0.134951 -0.064726 0
-0.124715 -0.060779 0
-0.114129 -0.056275 0
-0.103348 -0.051349 0
-0.092518 -0.046130 0
-0.081771 -0.040732 0
-0.071230 -0.035256 0
-0.061007 -0.029791 0
-0.051204 -0.024414 0
-0.041920 -0.019196 0
-0.033254 -0.014209 0
-0.025308 -0.009539 0
-0.018193 -0.005299 0
-0.012038 -0.001655 0
-0.006987 0.001146 0
-0.003196 0.002737 0
-0.000821 0.002595 0
0.000000 -0.000000 0
0.000000 0.000000 0
-0.001240 0.028282 0
-0.004684 0.053112 0
-0.010062 0.074245 0
-0.017104 0.091377 0
-0.025546 0.104259 0
-0.035128 0.112782 0
-0.045603 0.117027 0
-0.056743 0.117276 0
-0.068342 0.113974 0
-0.080218 0.107675 0
-0.092215 0.098975 0
-0.104197 0.088449 0
-0.116039 0.076612 0
-0.127628 0.063901 0
-0.138847 0.050673 0
-0.149578 0.037218 0
-0.159692 0.023774 0
-0.169053 0.010550 0
-0.177517 -0.002265 0
-0.184937 -0.014497 0
-0.191191 -0.025995 0
-0.196173 -0.036633 0
-0.199784 -0.046291 0
-0.201940 -0.054858 0
-0.202577 -0.062234 0
-0.201661 -0.068342 0
-0.199187 -0.073127 0
-0.195187 -0.076567 0
-0.189724 -0.078669 0
-0.182897 -0.079475 0
-0.174832 -0.079059 0
-0.165679 -0.077520 0
-0.155602 -0.074978 0
-0.144777 -0.071570 0
-0.133383 -0.067436 0
-0.121596 -0.062721 0
-0.109585 -0.057559 0
-0.097509 -0.052078 0
-0.085519 -0.046389 0
-0.073754 -0.040589 0
-0.062346 -0.034763 0
-0.051424 -0.028982 0
-0.041117 -0.023317 0
-0.031561 -0.017844 0
-0.022905 -0.012662 0
-0.015321 -0.007918 0
-0.009004 -0.003837 0
-0.004182 -0.000769 0
-0.001099 0.000759 0
0.000000 -0.000000 0
0.000000 0.000000 0
-0.001211 0.030601 0
-0.004582 0.057484 0
-0.009857 0.080407 0
-0.016782 0.099070 0
-0.025105 0.113229 0
-0.034582 0.122784 0
-0.044986 0.127832 0
-0.056104 0.128676 0
-0.067750 0.125783 0
-0.079759 0.119734 0
-0.091989 0.111143 0
-0.104316 0.100601 0
-0.116630 0.088634 0
-0.128822 0.075681 0
-0.140787 0.062096 0
-0.152406 0.048158 0
-0.163552 0.034097 0
-0.174082 0.020110 0
-0.183842 0.006376 0
-0.192666 -0.006927 0
-0.200390 -0.019626 0
-0.206880 -0.031580 0
-0.212009 -0.042662 0
-0.215662 -0.052743 0
-0.217740 -0.061703 0
-0.218167 -0.069432 0
-0.216901 -0.075844 0
-0.213933 -0.080878 0
-0.209296 -0.084507 0
-0.203061 -0.086737 0
-0.195335 -0.087612 0
-0.186258 -0.087208 0
-0.175995 -0.085628 0
-0.164727 -0.082997 0
-0.152649 -0.079456 0
-0.139956 -0.075148 0
-0.126841 -0.070217 0
-0.113493 -0.064797 0
-0.100089 -0.059011 0
-0.086800 -0.052963 0
-0.073789 -0.046743 0
-0.061216 -0.040425 0
-0.049243 -0.034073 0
-0.038042 -0.027751 0
-0.027803 -0.021539 0
-0.018743 -0.015555 0
-0.011117 -0.009993 0
-0.005221 -0.005169 0
-0.001394 -0.001586 0
0.000000 -0.000000 0
0.000000 0.000000 0
-0.001177 0.032864 0
-0.004463 0.061758 0
-0.009614 0.086444 0
-0.016387 0.106624 0
-0.024545 0.122060 0
-0.033860 0.132663 0
-0.044119 0.138549 0
-0.055130 0.140040 0
-0.066722 0.137628 0
-0.078748 0.131914 0
-0.091083 0.123533 0
-0.103616 0.113090 0
-0.116250 0.101118 0
-0.128888 0.088058 0
-0.141432 0.074257 0
-0.153774 0.059983 0
-0.165790 0.045451 0
-0.177339 0.030841 0
-0.188261 0.016319 0
-0.198382 0.002051 0
-0.207513 -0.011782 0
-0.215473 -0.025014 0