# vtk DataFile Version 2.0
generated by CFD-lab course output (written by Tobias Neckel) 
ASCII

DATASET STRUCTURED_GRID
DIMENSIONS  51 51 1 
POINTS 2601 float

0.000000 0.000000 0
0.020000 0.000000 0
0.040000 0.000000 0
0.060000 0.000000 0
0.080000 0.000000 0
0.100000 0.000000 0
0.120000 0.000000 0
0.140000 0.000000 0
0.160000 0.000000 0
0.180000 0.000000 0
0.200000 0.000000 0
0.220000 0.000000 0
0.240000 0.000000 0
0.260000 0.000000 0
0.280000 0.000000 0
0.300000 0.000000 0
0.320000 0.000000 0
0.340000 0.000000 0
0.360000 0.000000 0
0.380000 0.000000 0
0.400000 0.000000 0
0.420000 0.000000 0
0.440000 0.000000 0
0.460000 0.000000 0
0.480000 0.000000 0
0.500000 0.000000 0
0.520000 0.000000 0
0.540000 0.000000 0
0.560000 0.000000 0
0.580000 0.000000 0
0.600000 0.000000 0
0.620000 0.000000 0
0.640000 0.000000 0
0.660000 0.000000 0
0.680000 0.000000 0
0.700000 0.000000 0
0.720000 0.000000 0
0.740000 0.000000 0
0.760000 0.000000 0
0.780000 0.000000 0
0.800000 0.000000 0
0.820000 0.000000 0
0.840000 0.000000 0
0.860000 0.000000 0
0.880000 0.000000 0
0.900000 0.000000 0
0.920000 0.000000 0
0.940000 0.000000 0
0.960000 0.000000 0
0.980000 0.000000 0
1.000000 0.000000 0
0.000000 0.020000 0
0.020000 0.020000 0
0.040000 0.020000 0
0.060000 0.020000 0
0.080000 0.020000 0
0.100000 0.020000 0
0.120000 0.020000 0
0.140000 0.020000 0
0.160000 0.020000 0
0.180000 0.020000 0
0.200000 0.020000 0
0.220000 0.020000 0
0.240000 0.020000 0
0.260000 0.020000 0
0.280000 0.020000 0
0.300000 0.020000 0
0.320000 0.020000 0
0.340000 0.020000 0
0.360000 0.020000 0
0.380000 0.020000 0
0.400000 0.020000 0
0.420000 0.020000 0
0.440000 0.020000 0
0.460000 0.020000 0
0.480000 0.020000 0
0.500000 0.020000 0
0.520000 0.020000 0
0.540000 0.020000 0
0.560000 0.020000 0
0.580000 0.020000 0
0.600000 0.020000 0
0.620000 0.020000 0
0.640000 0.020000 0
0.660000 0.020000 0
0.680000 0.020000 0
0.700000 0.020000 0
0.720000 0.020000 0
0.740000 0.020000 0
0.760000 0.020000 0
0.780000 0.020000 0
0.800000 0.020000 0
0.820000 0.020000 0
0.840000 0.020000 0
0.860000 0.020000 0
0.880000 0.020000 0
0.900000 0.020000 0
0.920000 0.020000 0
0.940000 0.020000 0
0.960000 0.020000 0
0.980000 0.020000 0
1.000000 0.020000 0
0.000000 0.040000 0
0.020000 0.040000 0
0.040000 0.040000 0
0.060000 0.040000 0
0.080000 0.040000 0
0.100000 0.040000 0
0.120000 0.040000 0
0.140000 0.040000 0
0.160000 0.040000 0
0.180000 0.040000 0
0.200000 0.040000 0
0.220000 0.040000 0
0.240000 0.040000 0
0.260000 0.040000 0
0.280000 0.040000 0
0.300000 0.040000 0
0.320000 0.040000 0
0.340000 0.040000 0
0.360000 0.040000 0
0.380000 0.040000 0
0.400000 0.040000 0
0.420000 0.040000 0
0.440000 0.040000 0
0.460000 0.040000 0
0.480000 0.040000 0
0.500000 0.040000 0
0.520000 0.040000 0
0.540000 0.040000 0
0.560000 0.040000 0
0.580000 0.040000 0
0.600000 0.040000 0
0.620000 0.040000 0
0.640000 0.040000 0
0.660000 0.040000 0
0.680000 0.040000 0
0.700000 0.040000 0
0.720000 0.040000 0
0.740000 0.040000 0
0.760000 0.040000 0
0.780000 0.040000 0
0.800000 0.040000 0
0.820000 0.040000 0
0.840000 0.040000 0
0.860000 0.040000 0
0.880000 0.040000 0
0.900000 0.040000 0
0.920000 0.040000 0
0.940000 0.040000 0
0.960000 0.040000 0
0.980000 0.040000 0
1.000000 0.040000 0
0.000000 0.060000 0
0.020000 0.060000 0
0.040000 0.060000 0
0.060000 0.060000 0
0.080000 0.060000 0
0.100000 0.060000 0
0.120000 0.060000 0
0.140000 0.060000 0
0.160000 0.060000 0
0.180000 0.060000 0
0.200000 0.060000 0
0.220000 0.060000 0
0.240000 0.060000 0
0.260000 0.060000 0
0.280000 0.060000 0
0.300000 0.060000 0
0.320000 0.060000 0
0.340000 0.060000 0
0.360000 0.060000 0
0.380000 0.060000 0
0.400000 0.060000 0
0.420000 0.060000 0
0.440000 0.060000 0
0.460000 0.060000 0
0.480000 0.060000 0
0.500000 0.060000 0
0.520000 0.060000 0
0.540000 0.060000 0
0.560000 0.060000 0
0.580000 0.060000 0
0.600000 0.060000 0
0.620000 0.060000 0
0.640000 0.060000 0
0.660000 0.060000 0
0.680000 0.060000 0
0.700000 0.060000 0
0.720000 0.060000 0
0.740000 0.060000 0
0.760000 0.060000 0
0.780000 0.060000 0
0.800000 0.060000 0
0.820000 0.060000 0
0.840000 0.060000 0
0.860000 0.060000 0
0.880000 0.060000 0
0.900000 0.060000 0
0.920000 0.060000 0
0.940000 0.060000 0
0.960000 0.060000 0
0.980000 0.060000 0
1.000000 0.060000 0
0.000000 0.080000 0
0.020000 0.080000 0
0.040000 0.080000 0
0.060000 0.080000 0
0.080000 0.080000 0
0.100000 0.080000 0
0.120000 0.080000 0
0.140000 0.080000 0
0.160000 0.080000 0
0.180000 0.080000 0
0.200000 0.080000 0
0.220000 0.080000 0
0.240000 0.080000 0
0.260000 0.080000 0
0.280000 0.080000 0
0.300000 0.080000 0
0.320000 0.080000 0
0.340000 0.080000 0
0.360000 0.080000 0
0.380000 0.080000 0
0.400000 0.080000 0
0.420000 0.080000 0
0.440000 0.080000 0
0.460000 0.080000 0
0.480000 0.080000 0
0.500000 0.080000 0
0.520000 0.080000 0
0.540000 0.080000 0
0.560000 0.080000 0
0.580000 0.080000 0
0.600000 0.080000 0
0.620000 0.080000 0
0.640000 0.080000 0
0.660000 0.080000 0
0.680000 0.080000 0
0.700000 0.080000 0
0.720000 0.080000 0
0.740000 0.080000 0
0.760000 0.080000 0
0.780000 0.080000 0
0.800000 0.080000 0
0.820000 0.080000 0
0.840000 0.080000 0
0.860000 0.080000 0
0.880000 0.080000 0
0.900000 0.080000 0
0.920000 0.080000 0
0.940000 0.080000 0
0.960000 0.080000 0
0.980000 0.080000 0
1.000000 0.080000 0
0.000000 0.100000 0
0.020000 0.100000 0
0.040000 0.100000 0
0.060000 0.100000 0
0.080000 0.100000 0
0.100000 0.100000 0
0.120000 0.100000 0
0.140000 0.100000 0
0.160000 0.100000 0
0.180000 0.100000 0
0.200000 0.100000 0
0.220000 0.100000 0
0.240000 0.100000 0
0.260000 0.100000 0
0.280000 0.100000 0
0.300000 0.100000 0
0.320000 0.100000 0
0.340000 0.100000 0
0.360000 0.100000 0
0.380000 0.100000 0
0.400000 0.100000 0
0.420000 0.100000 0
0.440000 0.100000 0
0.460000 0.100000 0
0.480000 0.100000 0
0.500000 0.100000 0
0.520000 0.100000 0
0.540000 0.100000 0
0.560000 0.100000 0
0.580000 0.100000 0
0.600000 0.100000 0
0.620000 0.100000 0
0.640000 0.100000 0
0.660000 0.100000 0
0.680000 0.100000 0
0.700000 0.100000 0
0.720000 0.100000 0
0.740000 0.100000 0
0.760000 0.100000 0
0.780000 0.100000 0
0.800000 0.100000 0
0.820000 0.100000 0
0.840000 0.100000 0
0.860000 0.100000 0
0.880000 0.100000 0
0.900000 0.100000 0
0.920000 0.100000 0
0.940000 0.100000 0
0.960000 0.100000 0
0.980000 0.100000 0
1.000000 0.100000 0
0.000000 0.120000 0
0.020000 0.120000 0
0.040000 0.120000 0
0.060000 0.120000 0
0.080000 0.120000 0
0.100000 0.120000 0
0.120000 0.120000 0
0.140000 0.120000 0
0.160000 0.120000 0
0.180000 0.120000 0
0.200000 0.120000 0
0.220000 0.120000 0
0.240000 0.120000 0
0.260000 0.120000 0
0.280000 0.120000 0
0.300000 0.120000 0
0.320000 0.120000 0
0.340000 0.120000 0
0.360000 0.120000 0
0.380000 0.120000 0
0.400000 0.120000 0
0.420000 0.120000 0
0.440000 0.120000 0
0.460000 0.120000 0
0.480000 0.120000 0
0.500000 0.120000 0
0.520000 0.120000 0
0.540000 0.120000 0
0.560000 0.120000 0
0.580000 0.120000 0
0.600000 0.120000 0
0.620000 0.120000 0
0.640000 0.120000 0
0.660000 0.120000 0
0.680000 0.120000 0
0.700000 0.120000 0
0.720000 0.120000 0
0.740000 0.120000 0
0.760000 0.120000 0
0.780000 0.120000 0
0.800000 0.120000 0
0.820000 0.120000 0
0.840000 0.120000 0
0.860000 0.120000 0
0.880000 0.120000 0
0.900000 0.120000 0
0.920000 0.120000 0
0.940000 0.120000 0
0.960000 0.120000 0
0.980000 0.120000 0
1.000000 0.120000 0
0.000000 0.140000 0
0.020000 0.140000 0
0.040000 0.140000 0
0.060000 0.140000 0
0.080000 0.140000 0
0.100000 0.140000 0
0.120000 0.140000 0
0.140000 0.140000 0
0.160000 0.140000 0
0.180000 0.140000 0
0.200000 0.140000 0
0.220000 0.140000 0
0.240000 0.140000 0
0.260000 0.140000 0
0.280000 0.140000 0
0.300000 0.140000 0
0.320000 0.140000 0
0.340000 0.140000 0
0.360000 0.140000 0
0.380000 0.140000 0
0.400000 0.140000 0
0.420000 0.140000 0
0.440000 0.140000 0
0.460000 0.140000 0
0.480000 0.140000 0
0.500000 0.140000 0
0.520000 0.140000 0
0.540000 0.140000 0
0.560000 0.140000 0
0.580000 0.140000 0
0.600000 0.140000 0
0.620000 0.140000 0
0.640000 0.140000 0
0.660000 0.140000 0
0.680000 0.140000 0
0.700000 0.140000 0
0.720000 0.140000 0
0.740000 0.140000 0
0.760000 0.140000 0
0.780000 0.140000 0
0.800000 0.140000 0
0.820000 0.140000 0
0.840000 0.140000 0
0.860000 0.140000 0
0.880000 0.140000 0
0.900000 0.140000 0
0.920000 0.140000 0
0.940000 0.140000 0
0.960000 0.140000 0
0.980000 0.140000 0
1.000000 0.140000 0
0.000000 0.160000 0
0.020000 0.160000 0
0.040000 0.160000 0
0.060000 0.160000 0
0.080000 0.160000 0
0.100000 0.160000 0
0.120000 0.160000 0
0.140000 0.160000 0
0.160000 0.160000 0
0.180000 0.160000 0
0.200000 0.160000 0
0.220000 0.160000 0
0.240000 0.160000 0
0.260000 0.160000 0
0.280000 0.160000 0
0.300000 0.160000 0
0.320000 0.160000 0
0.340000 0.160000 0
0.360000 0.160000 0
0.380000 0.160000 0
0.400000 0.160000 0
0.420000 0.160000 0
0.440000 0.160000 0
0.460000 0.160000 0
0.480000 0.160000 0
0.500000 0.160000 0
0.520000 0.160000 0
0.540000 0.160000 0
0.560000 0.160000 0
0.580000 0.160000 0
0.600000 0.160000 0
0.620000 0.160000 0
0.640000 0.160000 0
0.660000 0.160000 0
0.680000 0.160000 0
0.700000 0.160000 0
0.720000 0.160000 0
0.740000 0.160000 0
0.760000 0.160000 0
0.780000 0.160000 0
0.800000 0.160000 0
0.820000 0.160000 0
0.840000 0.160000 0
0.860000 0.160000 0
0.880000 0.160000 0
0.900000 0.160000 0
0.920000 0.160000 0
0.940000 0.160000 0
0.960000 0.160000 0
0.980000 0.160000 0
1.000000 0.160000 0
0.000000 0.180000 0
0.020000 0.180000 0
0.040000 0.180000 0
0.060000 0.180000 0
0.080000 0.180000 0
0.100000 0.180000 0
0.120000 0.180000 0
0.140000 0.180000 0
0.160000 0.180000 0
0.180000 0.180000 0
0.200000 0.180000 0
0.220000 0.180000 0
0.240000 0.180000 0
0.260000 0.180000 0
0.280000 0.180000 0
0.300000 0.180000 0
0.320000 0.180000 0
0.340000 0.180000 0
0.360000 0.180000 0
0.380000 0.180000 0
0.400000 0.180000 0
0.420000 0.180000 0
0.440000 0.180000 0
0.460000 0.180000 0
0.480000 0.180000 0
0.500000 0.180000 0
0.520000 0.180000 0
0.540000 0.180000 0
0.560000 0.180000 0
0.580000 0.180000 0
0.600000 0.180000 0
0.620000 0.180000 0
[...]
POINT_DATA 2601 

VECTORS velocity float
0.000000 0.000000 0
-0.000001 0.000000 0
-0.000000 0.000000 0
0.000000 0.000000 0
0.000000 0.000000 0
0.000000 0.000000 0
-0.000000 0.000000 0
-0.000000 0.000000 0
-0.000000 0.000000 0
-0.000000 0.000000 0
-0.000000 0.000000 0
-0.000000 0.000000 0
-0.000000 0.000000 0
-0.000000 0.000000 0
-0.000000 0.000000 0
-0.000000 0.000000 0
-0.000000 0.000000 0
-0.000000 0.000000 0
-0.000000 0.000000 0
-0.000000 0.000000 0
-0.000000 0.000000 0
-0.000000 0.000000 0
-0.000000 0.000000 0
-0.000000 0.000000 0
-0.000000 0.000000 0
0.000000 0.000000 0
0.000000 0.000000 0
0.000000 0.000000 0
0.000000 0.000000 0
0.000000 0.000000 0
0.000000 0.000000 0
0.000000 0.000000 0
0.000000 0.000000 0
0.000000 0.000000 0
0.000000 0.000000 0
0.000000 0.000000 0
0.000000 0.000000 0
0.000000 0.000000 0
0.000000 0.000000 0
0.000000 0.000000 0
0.000000 0.000000 0
0.000000 0.000000 0
0.000000 0.000000 0
0.000000 0.000000 0
0.000000 0.000000 0
0.000000 0.000000 0
0.000000 0.000000 0
0.000000 0.000000 0
0.000000 0.000000 0
-0.000000 0.000000 0
0.000000 0.000000 0
0.000000 -0.000001 0
-0.000007 0.000009 0
-0.000349 0.000242 0
-0.001107 0.000500 0
-0.002246 0.000715 0
-0.003676 0.000860 0
-0.005283 0.000930 0
-0.006944 0.000926 0
-0.008544 0.000856 0
-0.009982 0.000732 0
-0.011175 0.000567 0
-0.012067 0.000377 0
-0.012621 0.000175 0
-0.012824 -0.000028 0
-0.012681 -0.000221 0
-0.012211 -0.000398 0
-0.011444 -0.000552 0
-0.010419 -0.000680 0
-0.009180 -0.000781 0
-0.007775 -0.000854 0
-0.006250 -0.000899 0
-0.004654 -0.000917 0
-0.003031 -0.000912 0
-0.001422 -0.000884 0
0.000136 -0.000837 0
0.001609 -0.000775 0
0.002970 -0.000700 0
0.004198 -0.000615 0
0.005278 -0.000525 0
0.006198 -0.000431 0
0.006952 -0.000336 0
0.007540 -0.000242 0
0.007962 -0.000150 0
0.008222 -0.000063 0
0.008329 0.000020 0
0.008290 0.000097 0
0.008115 0.000168 0
0.007815 0.000233 0
0.007400 0.000292 0
0.006882 0.000345 0
0.006271 0.000392 0
0.005580 0.000432 0
0.004824 0.000464 0
0.004020 0.000484 0
0.003191 0.000490 0
0.002367 0.000474 0
0.001589 0.000429 0
0.000907 0.000347 0
0.000382 0.000221 0
0.000072 0.000071 0
0.000000 0.000000 0
0.000000 -0.000000 0
-0.000225 0.000348 0
-0.001072 0.001101 0
-0.002584 0.001898 0
-0.004696 0.002569 0
-0.007271 0.003036 0
-0.010132 0.003267 0
-0.013085 0.003261 0
-0.015944 0.003038 0
-0.018538 0.002631 0
-0.020732 0.002085 0
-0.022421 0.001445 0
-0.023541 0.000757 0
-0.024062 0.000060 0
-0.023984 -0.000613 0
-0.023332 -0.001237 0
-0.022153 -0.001792 0
-0.020505 -0.002264 0
-0.018459 -0.002644 0
-0.016094 -0.002930 0
-0.013488 -0.003121 0
-0.010724 -0.003220 0
-0.007879 -0.003232 0
-0.005026 -0.003166 0
-0.002233 -0.003030 0
0.000441 -0.002834 0
0.002944 -0.002589 0
0.005232 -0.002308 0
0.007273 -0.002000 0
0.009045 -0.001675 0
0.010533 -0.001342 0
0.011729 -0.001009 0
0.012634 -0.000682 0
0.013251 -0.000367 0
0.013591 -0.000068 0
0.013666 0.000214 0
0.013494 0.000475 0
0.013092 0.000715 0
0.012478 0.000933 0
0.011673 0.001129 0
0.010698 0.001302 0
0.009576 0.001447 0
0.008333 0.001560 0
0.007003 0.001633 0
0.005624 0.001653 0
0.004248 0.001602 0
0.002938 0.001460 0
0.001772 0.001207 0
0.000838 0.000835 0
0.000223 0.000382 0
0.000000 0.000000 0
0.000000 0.000000 0
-0.000465 0.001082 0
-0.001837 0.002602 0
-0.004068 0.004124 0
-0.007046 0.005401 0
-0.010595 0.006294 0
-0.014499 0.006743 0
-0.018523 0.006737 0
-0.022433 0.006309 0
-0.026018 0.005520 0
-0.029102 0.004450 0
-0.031549 0.003186 0
-0.033269 0.001815 0
-0.034217 0.000415 0
-0.034384 -0.000951 0
-0.033794 -0.002229 0
-0.032495 -0.003380 0
-0.030558 -0.004374 0
-0.028067 -0.005192 0
-0.025116 -0.005824 0
-0.021805 -0.006268 0
-0.018237 -0.006527 0
-0.014513 -0.006610 0
-0.010731 -0.006530 0
-0.006980 -0.006304 0
-0.003343 -0.005951 0
0.000109 -0.005490 0
0.003312 -0.004945 0
0.006217 -0.004339 0
0.008785 -0.003691 0
0.010991 -0.003020 0
0.012820 -0.002342 0
0.014266 -0.001672 0
0.015331 -0.001020 0
0.016023 -0.000396 0
0.016357 0.000193 0
0.016353 0.000742 0
0.016031 0.001249 0
0.015418 0.001710 0
0.014539 0.002125 0
0.013423 0.002489 0
0.012102 0.002797 0
0.010612 0.003037 0
0.008994 0.003194 0
0.007299 0.003244 0
0.005590 0.003160 0
0.003943 0.002905 0
0.002448 0.002447 0
0.001212 0.001771 0
0.000350 0.000910 0
0.000000 0.000000 0
0.000000 0.000001 0
-0.000674 0.002186 0
-0.002524 0.004704 0
-0.005408 0.007106 0
-0.009158 0.009095 0
-0.013564 0.010489 0
-0.018378 0.011195 0
-0.023335 0.011195 0
-0.028175 0.010534 0
-0.032657 0.009300 0
-0.036578 0.007615 0
-0.039781 0.005613 0
-0.042155 0.003425 0
-0.043638 0.001175 0
-0.044212 -0.001037 0
-0.043894 -0.003126 0
-0.042731 -0.005027 0
-0.040791 -0.006692 0
-0.038164 -0.008087 0
-0.034949 -0.009192 0
-0.031257 -0.009999 0
-0.027202 -0.010511 0
-0.022900 -0.010739 0
-0.018463 -0.010700 0
-0.014000 -0.010418 0
-0.009611 -0.009923 0
-0.005383 -0.009244 0
-0.001396 -0.008416 0
0.002283 -0.007472 0
0.005601 -0.006449 0
0.008518 -0.005377 0
0.011006 -0.004284 0
0.013053 -0.003193 0
0.014654 -0.002124 0
0.015814 -0.001094 0
0.016544 -0.000116 0
0.016864 0.000801 0
0.016796 0.001650 0
0.016370 0.002425 0
0.015614 0.003124 0
0.014564 0.003738 0
0.013256 0.004259 0
0.011731 0.004669 0
0.010036 0.004946 0
0.008229 0.005057 0
0.006377 0.004958 0
0.004562 0.004602 0
0.002883 0.003938 0
0.001458 0.002933 0
0.000434 0.001594 0
0.000000 0.000000 0
0.000000 0.000001 0
-0.000842 0.003606 0
-0.003100 0.007335 0
-0.006556 0.010758 0
-0.010991 0.013556 0
-0.016158 0.015514 0
-0.021785 0.016515 0
-0.027586 0.016535 0
-0.033280 0.015632 0
-0.038607 0.013923 0
-0.043348 0.011573 0
-0.047327 0.008762 0
-0.050418 0.005673 0
-0.052545 0.002472 0
-0.053677 -0.000694 0
-0.053821 -0.003710 0
-0.053017 -0.006483 0
-0.051326 -0.008941 0
-0.048834 -0.011034 0
-0.045639 -0.012731 0
-0.041853 -0.014015 0
-0.037593 -0.014884 0
-0.032981 -0.015348 0
-0.028139 -0.015430 0
-0.023185 -0.015157 0
-0.018234 -0.014568 0
-0.013388 -0.013705 0
-0.008741 -0.012612 0
-0.004372 -0.011336 0
-0.000351 -0.009925 0
0.003268 -0.008425 0
0.006444 -0.006878 0
0.009149 -0.005319 0
0.011372 -0.003781 0
0.013110 -0.002286 0
0.014368 -0.000857 0
0.015163 0.000490 0
0.015514 0.001743 0
0.015451 0.002893 0
0.015005 0.003931 0
0.014212 0.004848 0
0.013112 0.005630 0
0.011749 0.006256 0
0.010171 0.006695 0
0.008438 0.006903 0
0.006618 0.006827 0
0.004794 0.006399 0
0.003069 0.005551 0
0.001573 0.004220 0
0.000474 0.002367 0
0.000000 0.000000 0
0.000000 0.000000 0
-0.000973 0.005285 0
-0.003568 0.010417 0
-0.007513 0.014997 0
-0.012546 0.018697 0
-0.018389 0.021283 0
-0.024749 0.022623 0
-0.031324 0.022690 0
-0.037818 0.021555 0
-0.043962 0.019369 0
-0.049520 0.016334 0
-0.054307 0.012682 0
-0.058182 0.008644 0
-0.061057 0.004434 0
-0.062886 0.000239 0
-0.063663 -0.003786 0
-0.063418 -0.007523 0
-0.062201 -0.010875 0
-0.060086 -0.013774 0
-0.057166 -0.016173 0
-0.053543 -0.018046 0
-0.049334 -0.019384 0
-0.044657 -0.020193 0
-0.039639 -0.020495 0
-0.034402 -0.020323 0
-0.029070 -0.019720 0
-0.023755 -0.018738 0
-0.018563 -0.017432 0
-0.013590 -0.015862 0
-0.008918 -0.014089 0
-0.004613 -0.012172 0
-0.000732 -0.010165 0
0.002683 -0.008121 0
0.005607 -0.006084 0
0.008026 -0.004091 0
0.009938 -0.002169 0
0.011351 -0.000345 0
0.012281 0.001362 0
0.012750 0.002935 0
0.012790 0.004363 0
0.012438 0.005631 0
0.011731 0.006722 0
0.010714 0.007610 0
0.009435 0.008257 0
0.007951 0.008610 0
0.006329 0.008603 0
0.004650 0.008151 0
0.003017 0.007159 0
0.001566 0.005528 0
0.000478 0.003167 0
0.000000 0.000000 0
0.000000 0.000000 0
-0.001074 0.007173 0
-0.003941 0.013874 0
-0.008294 0.019736 0
-0.013840 0.024433 0
-0.020277 0.027718 0
-0.027296 0.029450 0
-0.034583 0.029605 0
-0.041833 0.028269 0
-0.048768 0.025625 0
-0.055147 0.021918 0
-0.060771 0.017424 0
-0.065492 0.012423 0
-0.069208 0.007176 0
-0.071859 0.001912 0
-0.073424 -0.003178 0
-0.073916 -0.007946 0
-0.073374 -0.012272 0
-0.071857 -0.016069 0
-0.069441 -0.019274 0
-0.066218 -0.021847 0
-0.062294 -0.023770 0
-0.057782 -0.025044 0
-0.052804 -0.025685 0
-0.047483 -0.025727 0
-0.041944 -0.025216 0
-0.036308 -0.024211 0
-0.030692 -0.022776 0
-0.025202 -0.020982 0
-0.019934 -0.018903 0
-0.014970 -0.016610 0
-0.010380 -0.014174 0
-0.006219 -0.011659 0
-0.002529 -0.009124 0
0.000663 -0.006617 0
0.003343 -0.004182 0
0.005508 -0.001853 0
0.007167 0.000344 0
0.008332 0.002383 0
0.009029 0.004243 0
0.009292 0.005908 0
0.009156 0.007354 0
0.008662 0.008552 0
0.007857 0.009457 0
0.006792 0.010010 0
0.005529 0.010128 0
0.004145 0.009711 0
0.002740 0.008635 0
0.001447 0.006759 0
0.000449 0.003934 0
0.000000 0.000000 0
0.000000 -0.000000 0
-0.001150 0.009225 0
-0.004232 0.017637 0
-0.008918 0.024896 0
-0.014896 0.030681 0
-0.021848 0.034741 0
-0.029452 0.036929 0
-0.037388 0.037227 0
-0.045348 0.035740 0
-0.053047 0.032682 0
-0.060240 0.028337 0
-0.066724 0.023028 0
-0.072340 0.017081 0
-0.076974 0.010800 0
-0.080553 0.004455 0
-0.083039 -0.001729 0
-0.084427 -0.007572 0
-0.084738 -0.012934 0
-0.084013 -0.017708 0
-0.082310 -0.021812 0
-0.079704 -0.025193 0
-0.076286 -0.027820 0
-0.072155 -0.029683 0
-0.067425 -0.030795 0
-0.062213 -0.031183 0
-0.056643 -0.030895 0
-0.050840 -0.029989 0
-0.044926 -0.028538 0
-0.039016 -0.026621 0
-0.033220 -0.024321 0
-0.027634 -0.021725 0
-0.022343 -0.018916 0
-0.017418 -0.015972 0
-0.012915 -0.012967 0
-0.008877 -0.009962 0
-0.005332 -0.007015 0
-0.002296 -0.004169 0
0.000228 -0.001462 0
0.002243 0.001072 0
0.003763 0.003403 0
0.004811 0.005505 0
0.005418 0.007352 0
0.005621 0.008909 0
0.005459 0.010127 0
0.004979 0.010938 0
0.004235 0.011249 0
0.003295 0.010939 0
0.002249 0.009857 0
0.001222 0.007819 0
0.000390 0.004614 0
0.000000 0.000000 0
0.000000 -0.000000 0
-0.001206 0.011404 0
-0.004452 0.021642 0
-0.009403 0.030401 0
-0.015734 0.037363 0
-0.023122 0.042275 0
-0.031237 0.044991 0
-0.039756 0.045499 0
-0.048370 0.043927 0
-0.056797 0.040517 0
-0.064788 0.035595 0
-0.072137 0.029524 0
-0.078679 0.022673 0
-0.084289 0.015389 0
-0.088880 0.007977 0
-0.092396 0.000696 0
-0.094813 -0.006246 0
-0.096130 -0.012687 0
-0.096368 -0.018498 0
-0.095565 -0.023583 0
-0.093774 -0.027872 0
-0.091065 -0.031320 0
-0.087522 -0.033905 0
-0.083241 -0.035627 0
-0.078332 -0.036508 0
-0.072910 -0.036589 0
-0.067100 -0.035929 0
-0.061025 -0.034600 0
-0.054808 -0.032688 0
-0.048568 -0.030285 0
-0.042415 -0.027487 0
-0.036449 -0.024390 0
-0.030757 -0.021087 0
-0.025412 -0.017664 0
-0.020473 -0.014200 0
-0.015985 -0.010764 0
-0.011979 -0.007412 0
-0.008472 -0.004195 0
-0.005471 -0.001153 0
-0.002976 0.001676 0
-0.000979 0.004253 0
0.000539 0.006544 0
0.001608 0.008511 0
0.002258 0.010099 0
0.002527 0.011234 0
0.002458 0.011813 0
0.002107 0.011697 0
0.001550 0.010707 0
0.000897 0.008618 0
0.000304 0.005156 0
0.000000 0.000000 0
0.000000 -0.000000 0
-0.001244 0.013676 0
-0.004610 0.025835 0
-0.009763 0.036179 0
-0.016375 0.044400 0
-0.024119 0.050243 0
-0.032667 0.053563 0
-0.041697 0.054360 0
-0.050905 0.052781 0
-0.060010 0.049099 0
-0.068766 0.043677 0
-0.076966 0.036919 0
-0.084441 0.029233 0
-0.091058 0.021002 0
-0.096717 0.012563 0
-0.101346 0.004204 0
-0.104895 -0.003839 0
-0.107346 -0.011379 0
-0.108694 -0.018273 0
-0.108954 -0.024406 0
-0.108155 -0.029693 0
-0.106344 -0.034072 0
-0.103582 -0.037508 0
-0.099947 -0.039985 0
-0.095531 -0.041514 0
-0.090441 -0.042127 0
-0.084791 -0.041875 0
-0.078706 -0.040830 0
-0.072310 -0.039077 0
-0.065730 -0.036714 0
-0.059086 -0.033844 0
-0.052494 -0.030574 0
-0.046054 -0.027009 0
-0.039859 -0.023250 0
-0.033986 -0.019389 0
-0.028497 -0.015509 0
-0.023440 -0.011682 0
-0.018849 -0.007970 0
-0.014748 -0.004424 0
-0.011146 -0.001089 0
-0.008050 0.001990 0
-0.005460 0.004765 0
-0.003362 0.007190 0
-0.001736 0.009208 0
-0.000557 0.010738 0
0.000204 0.011669 0
0.000587 0.011847 0
0.000648 0.011067 0
0.000472 0.009066 0
0.000190 0.005510 0
0.000000 0.000000 0
0.000000 0.000000 0
-0.001267 0.016014 0
-0.004715 0.030162 0
-0.010012 0.042166 0
-0.016834 0.051718 0
-0.024857 0.058566 0
-0.033759 0.062569 0
-0.043223 0.063737 0
-0.052952 0.062239 0
-0.062672 0.058378 0
-0.072143 0.052551 0
-0.081159 0.045199 0
-0.089550 0.036766 0
-0.097178 0.027666 0
-0.103931 0.018265 0
-0.109720 0.008873 0
-0.114479 -0.000246 0
-0.118159 -0.008888 0
-0.120734 -0.016890 0
-0.122194 -0.024121 0
-0.122542 -0.030482 0
-0.121798 -0.035893 0
-0.119997 -0.040302 0
-0.117195 -0.043678 0
-0.113462 -0.046014 0
-0.108888 -0.047329 0
-0.103576 -0.047664 0
-0.097643 -0.047081 0
-0.091213 -0.045664 0
-0.084416 -0.043509 0
-0.077381 -0.040723 0
-0.070234 -0.037422 0
-0.063093 -0.033721 0
-0.056065 -0.029733 0
-0.049248 -0.025563 0
-0.042722 -0.021310 0
-0.036555 -0.017060 0
-0.030801 -0.012887 0
-0.025500 -0.008856 0
-0.020680 -0.005022 0
-0.016359 -0.001433 0
-0.012552 0.001856 0
-0.009269 0.004787 0
-0.006509 0.007294 0
-0.004264 0.009293 0
-0.002520 0.010668 0
-0.001261 0.011253 0
-0.000456 0.010822 0
-0.000051 0.009076 0
0.000048 0.005628 0
0.000000 -0.000000 0
0.000000 0.000000 0
-0.001278 0.018392 0
-0.004773 0.034580 0
-0.010161 0.048298 0
-0.017127 0.059245 0
-0.025354 0.067167 0
-0.034529 0.071929 0
-0.044345 0.073553 0
-0.054516 0.072230 0
-0.064776 0.068290 0
-0.074894 0.062164 0
-0.084670 0.054326 0
-0.093934 0.045252 0
-0.102545 0.035382 0
-0.110385 0.025105 0
-0.117351 0.014752 0
-0.123358 0.004600 0
-0.128331 -0.005124 0
-0.132220 -0.014238 0
-0.134988 -0.022598 0
-0.136610 -0.030089 0
-0.137080 -0.036617 0
-0.136403 -0.042111 0
-0.134608 -0.046521 0
-0.131741 -0.049821 0
-0.127868 -0.052013 0
-0.123076 -0.053120 0
-0.117470 -0.053193 0
-0.111167 -0.052304 0
-0.104296 -0.050546 0
-0.096990 -0.048027 0
-0.089385 -0.044863 0
-0.081612 -0.041178 0
-0.073796 -0.037095 0
-0.066051 -0.032733 0
-0.058479 -0.028202 0
-0.051169 -0.023603 0
-0.044194 -0.019025 0
-0.037616 -0.014545 0
-0.031482 -0.010230 0
-0.025829 -0.006138 0
-0.020687 -0.002325 0
-0.016083 0.001148 0
-0.012040 0.004203 0
-0.008578 0.006749 0
-0.005708 0.008666 0
-0.003435 0.009783 0
-0.001763 0.009857 0
-0.000674 0.008561 0
-0.000121 0.005459 0
0.000000 -0.000000 0
0.000000 0.000000 0
-0.001278 0.020787 0
-0.004789 0.039045 0
-0.010221 0.054520 0
-0.017269 0.066911 0
-0.025628 0.075967 0
-0.034995 0.081560 0
-0.045079 0.083724 0
-0.055604 0.082670 0
-0.066319 0.078757 0
-0.077002 0.072444 0
-0.087460 0.064238 0
-0.097529 0.054641 0
-0.107069 0.044117 0
-0.115956 0.033070 0
-0.124078 0.021847 0
-0.131334 0.010734 0
-0.137632 -0.000026 0
-0.142887 -0.010233 0
-0.147036 -0.019731 0
-0.150031 -0.028390 0
-0.151833 -0.036100 0
-0.152421 -0.042774 0
-0.151792 -0.048341 0
-0.149961 -0.052755 0
-0.146970 -0.055993 0
-0.142882 -0.058062 0
-0.137784 -0.058991 0
-0.131781 -0.058838 0
-0.124995 -0.057686 0
-0.117560 -0.055634 0
-0.109618 -0.052800 0
-0.101310 -0.049310 0
-0.092776 -0.045294 0
-0.084147 -0.040880 0
-0.075547 -0.036192 0
-0.067085 -0.031345 0
-0.058858 -0.026440 0
-0.050948 -0.021568 0
-0.043426 -0.016808 0
-0.036352 -0.012227 0
-0.029776 -0.007890 0
-0.023741 -0.003860 0
-0.018293 -0.000211 0
-0.013478 0.002961 0
-0.009342 0.005525 0
-0.005925 0.007308 0
-0.003266 0.008061 0
-0.001396 0.007435 0
-0.000320 0.004954 0
0.000000 -0.000000 0
0.000000 0.000001 0
-0.001269 0.023181 0
-0.004769 0.043522 0
-0.010202 0.060778 0
-0.017275 0.074651 0
-0.025697 0.084893 0
-0.035180 0.091380 0
-0.045445 0.094162 0
-0.056233 0.093470 0
-0.067308 0.089688 0
-0.078460 0.083304 0
-0.089507 0.074854 0
-0.100292 0.064861 0
-0.110677 0.053808 0
-0.120540 0.042114 0
-0.129762 0.030131 0
-0.138233 0.018154 0
-0.145841 0.006429 0
-0.152479 -0.004833 0
-0.158051 -0.015454 0
-0.162481 -0.025292 0
-0.165706 -0.034227 0
-0.167671 -0.042153 0
-0.168342 -0.048981 0
-0.167704 -0.054643 0
-0.165765 -0.059091 0
-0.162561 -0.062306 0
-0.158155 -0.064294 0
-0.152634 -0.065093 0
-0.146107 -0.064767 0
-0.138704 -0.063404 0
-0.130566 -0.061114 0
-0.121843 -0.058021 0
-0.112687 -0.054258 0
-0.103246 -0.049961 0
-0.093662 -0.045264 0
-0.084068 -0.040292 0
-0.074583 -0.035162 0
-0.065314 -0.029977 0
-0.056356 -0.024826 0
-0.047792 -0.019789 0
-0.039697 -0.014936 0
-0.032142 -0.010335 0
-0.025192 -0.006060 0
-0.018917 -0.002202 0
-0.013397 0.001113 0
-0.008715 0.003708 0
-0.004959 0.005328 0
-0.002212 0.005614 0
-0.000546 0.004064 0
0.000000 -0.000000 0
0.000000 0.000001 0
-0.001252 0.025556 0
-0.004718 0.047978 0
-0.010114 0.067026 0
-0.017162 0.082406 0
-0.025583 0.093872 0
-0.035105 0.101308 0
-0.045467 0.104778 0
-0.056426 0.104533 0
-0.067760 0.100983 0
-0.079276 0.094643 0
-0.090804 0.086070 0
-0.102196 0.075812 0
-0.113322 0.064365 0
-0.124060 0.052155 0
-0.134293 0.039540 0
-0.143903 0.026812 0
-0.152768 0.014220 0
-0.160762 0.001976 0
-0.167763 -0.009729 0
-0.173659 -0.020735 0
-0.178359 -0.030911 0
-0.181782 -0.040137 0
-0.183862 -0.048308 0
-0.184548 -0.055332 0
-0.183816 -0.061136 0
-0.181668 -0.065671 0
-0.178135 -0.068918 0
-0.173281 -0.070886 0
-0.167198 -0.071615 0
-0.160001 -0.071175 0
-0.151829 -0.069661 0
-0.142834 -0.067189 0
-0.133176 -0.063891 0
-0.123019 -0.059904 0
-0.112523 -0.055370 0
-0.101843 -0.050424 0
-0.091122 -0.045194 0
-0.080493 -0.039796 0
-0.070076 -0.034330 0
-0.059982 -0.028886 0
-0.050311 -0.023540 0
-0.041160 -0.018366 0
-0.032626 -0.013435 0
-0.024809 -0.008834 0
-0.017818 -0.004677 0
-0.011776 -0.001130 0
-0.006826 0.001558 0
-0.003117 0.003022 0
-0.000799 0.002742 0
0.000000 -0.000000 0
0.000000 0.000001 0
-0.001229 0.027899 0
-0.004641 0.052384 0
-0.009968 0.073222 0
-0.016944 0.090120 0
-0.025306 0.102836 0
-0.034798 0.111265 0
-0.045175 0.115483 0
-0.056211 0.115763 0
-0.067703 0.112538 0
-0.079471 0.106348 0
-0.091361 0.097773 0
-0.103238 0.087379 0
-0.114978 0.075672 0
-0.126469 0.063086 0
-0.137595 0.049974 0
-0.148236 0.036628 0
-0.158265 0.023288 0
-0.167546 0.010162 0
-0.175935 -0.002558 0
-0.183287 -0.014697 0
-0.189479 -0.026103 0
-0.194406 -0.036649 0
-0.197968 -0.046215 0
-0.200084 -0.054689 0
-0.200689 -0.061972 0
-0.199751 -0.067987 0
-0.197265 -0.072680 0
-0.193264 -0.076030 0
-0.187813 -0.078047 0
-0.181009 -0.078772 0
-0.172980 -0.078281 0
-0.163875 -0.076674 0
-0.153859 -0.074073 0
-0.143107 -0.070613 0
-0.131797 -0.066439 0
-0.120104 -0.061693 0
-0.108197 -0.056512 0
-0.096235 -0.051023 0
-0.084364 -0.045338 0
-0.072725 -0.039554 0
-0.061447 -0.033757 0
-0.050657 -0.028019 0
-0.040481 -0.022411 0
-0.031054 -0.017011 0
-0.022521 -0.011920 0
-0.015052 -0.007284 0
-0.008838 -0.003331 0
-0.004100 -0.000413 0
-0.001076 0.000946 0
0.000000 -0.000000 0
0.000000 0.000001 0
-0.001201 0.030197 0
-0.004543 0.056717 0
-0.009774 0.079329 0
-0.016639 0.097744 0
-0.024890 0.111726 0
-0.034287 0.121177 0
-0.044600 0.126191 0
-0.055623 0.127061 0
-0.067170 0.124243 0
-0.079077 0.118301 0
-0.091206 0.109836 0
-0.103433 0.099429 0
-0.115649 0.087596 0
-0.127748 0.074771 0
-0.139623 0.061307 0
-0.151157 0.047483 0
-0.162222 0.033530 0
-0.172676 0.019646 0
-0.182365 0.006012 0
-0.191123 -0.007191 0
-0.198787 -0.019792 0
-0.205223 -0.031648 0
-0.210306 -0.042630 0
-0.213919 -0.052611 0
-0.215965 -0.061468 0
-0.216369 -0.069095 0
-0.215088 -0.075405 0
-0.212117 -0.080339 0
-0.207487 -0.083870 0
-0.201270 -0.086008 0
-0.193575 -0.086795 0
-0.184540 -0.086311 0
-0.174331 -0.084659 0
-0.163130 -0.081966 0
-0.151129 -0.078372 0
-0.138523 -0.074024 0
-0.125506 -0.069064 0
-0.112264 -0.063629 0
-0.098973 -0.057840 0
-0.085803 -0.051803 0
-0.072915 -0.045609 0
-0.060468 -0.039332 0
-0.048622 -0.033038 0
-0.037545 -0.026793 0
-0.027427 -0.020678 0
-0.018479 -0.014813 0
-0.010953 -0.009394 0
-0.005140 -0.004741 0
-0.001371 -0.001358 0
0.000000 -0.000000 0
0.000000 0.000000 0
-0.001169 0.032442 0
-0.004430 0.060957 0
-0.009541 0.085317 0
-0.016263 0.105237 0
-0.024358 0.120484 0
-0.033600 0.130975 0
-0.043779 0.136820 0
-0.054703 0.138332 0
-0.066204 0.135992 0
-0.078137 0.130383 0
-0.090377 0.122129 0
-0.102817 0.111822 0
-0.115359 0.099987 0
-0.127909 0.087059 0
-0.140369 0.073383 0
-0.152632 0.059227 0
-0.164573 0.044807 0
-0.176051 0.030305 0
-0.186908 0.015889 0
-0.196969 0.001725 0
-0.206044 -0.012003 0
-0.213955 -0.025131 0