# vtk DataFile Version 2.0
generated by CFD-lab course output (written by Tobias Neckel) 
ASCII

DATASET STRUCTURED_GRID
DIMENSIONS  51 51 1 
POINTS 2601 float

0.000000 0.000000 0
0.020000 0.000000 0
0.040000 0.000000 0
0.060000 0.000000 0
0.080000 0.000000 0
0.100000 0.000000 0
0.120000 0.000000 0
0.140000 0.000000 0
0.160000 0.000000 0
0.180000 0.000000 0
0.200000 0.000000 0
0.220000 0.000000 0
0.240000 0.000000 0
0.260000 0.000000 0
0.280000 0.000000 0
0.300000 0.000000 0
0.320000 0.000000 0
0.340000 0.000000 0
0.360000 0.000000 0
0.380000 0.000000 0
0.400000 0.000000 0
0.420000 0.000000 0
0.440000 0.000000 0
0.460000 0.000000 0
0.480000 0.000000 0
0.500000 0.000000 0
0.520000 0.000000 0
0.540000 0.000000 0
0.560000 0.000000 0
0.580000 0.000000 0
0.600000 0.000000 0
0.620000 0.000000 0
0.640000 0.000000 0
0.660000 0.000000 0
0.680000 0.000000 0
0.700000 0.000000 0
0.720000 0.000000 0
0.740000 0.000000 0
0.760000 0.000000 0
0.780000 0.000000 0
0.800000 0.000000 0
0.820000 0.000000 0
0.840000 0.000000 0
0.860000 0.000000 0
0.880000 0.000000 0
0.900000 0.000000 0
0.920000 0.000000 0
0.940000 0.000000 0
0.960000 0.000000 0
0.980000 0.000000 0
1.000000 0.000000 0
0.000000 0.020000 0
0.020000 0.020000 0
0.040000 0.020000 0
0.060000 0.020000 0
0.080000 0.020000 0
0.100000 0.020000 0
0.120000 0.020000 0
0.140000 0.020000 0
0.160000 0.020000 0
0.180000 0.020000 0
0.200000 0.020000 0
0.220000 0.020000 0
0.240000 0.020000 0
0.260000 0.020000 0
0.280000 0.020000 0
0.300000 0.020000 0
0.320000 0.020000 0
0.340000 0.020000 0
0.360000 0.020000 0
0.380000 0.020000 0
0.400000 0.020000 0
0.420000 0.020000 0
0.440000 0.020000 0
0.460000 0.020000 0
0.480000 0.020000 0
0.500000 0.020000 0
0.520000 0.020000 0
0.540000 0.020000 0
0.560000 0.020000 0
0.580000 0.020000 0
0.600000 0.020000 0
0.620000 0.020000 0
0.640000 0.020000 0
0.660000 0.020000 0
0.680000 0.020000 0
0.700000 0.020000 0
0.720000 0.020000 0
0.740000 0.020000 0
0.760000 0.020000 0
0.780000 0.020000 0
0.800000 0.020000 0
0.820000 0.020000 0
0.840000 0.020000 0
0.860000 0.020000 0
0.880000 0.020000 0
0.900000 0.020000 0
0.920000 0.020000 0
0.940000 0.020000 0
0.960000 0.020000 0
0.980000 0.020000 0
1.000000 0.020000 0
0.000000 0.040000 0
0.020000 0.040000 0
0.040000 0.040000 0
0.060000 0.040000 0
0.080000 0.040000 0
0.100000 0.040000 0
0.120000 0.040000 0
0.140000 0.040000 0
0.160000 0.040000 0
0.180000 0.040000 0
0.200000 0.040000 0
0.220000 0.040000 0
0.240000 0.040000 0
0.260000 0.040000 0
0.280000 0.040000 0
0.300000 0.040000 0
0.320000 0.040000 0
0.340000 0.040000 0
0.360000 0.040000 0
0.380000 0.040000 0
0.400000 0.040000 0
0.420000 0.040000 0
0.440000 0.040000 0
0.460000 0.040000 0
0.480000 0.040000 0
0.500000 0.040000 0
0.520000 0.040000 0
0.540000 0.040000 0
0.560000 0.040000 0
0.580000 0.040000 0
0.600000 0.040000 0
0.620000 0.040000 0
0.640000 0.040000 0
0.660000 0.040000 0
0.680000 0.040000 0
0.700000 0.040000 0
0.720000 0.040000 0
0.740000 0.040000 0
0.760000 0.040000 0
0.780000 0.040000 0
0.800000 0.040000 0
0.820000 0.040000 0
0.840000 0.040000 0
0.860000 0.040000 0
0.880000 0.040000 0
0.900000 0.040000 0
0.920000 0.040000 0
0.940000 0.040000 0
0.960000 0.040000 0
0.980000 0.040000 0
1.000000 0.040000 0
0.000000 0.060000 0
0.020000 0.060000 0
0.040000 0.060000 0
0.060000 0.060000 0
0.080000 0.060000 0
0.100000 0.060000 0
0.120000 0.060000 0
0.140000 0.060000 0
0.160000 0.060000 0
0.180000 0.060000 0
0.200000 0.060000 0
0.220000 0.060000 0
0.240000 0.060000 0
0.260000 0.060000 0
0.280000 0.060000 0
0.300000 0.060000 0
0.320000 0.060000 0
0.340000 0.060000 0
0.360000 0.060000 0
0.380000 0.060000 0
0.400000 0.060000 0
0.420000 0.060000 0
0.440000 0.060000 0
0.460000 0.060000 0
0.480000 0.060000 0
0.500000 0.060000 0
0.520000 0.060000 0
0.540000 0.060000 0
0.560000 0.060000 0
0.580000 0.060000 0
0.600000 0.060000 0
0.620000 0.060000 0
0.640000 0.060000 0
0.660000 0.060000 0
0.680000 0.060000 0
0.700000 0.060000 0
0.720000 0.060000 0
0.740000 0.060000 0
0.760000 0.060000 0
0.780000 0.060000 0
0.800000 0.060000 0
0.820000 0.060000 0
0.840000 0.060000 0
0.860000 0.060000 0
0.880000 0.060000 0
0.900000 0.060000 0
0.920000 0.060000 0
0.940000 0.060000 0
0.960000 0.060000 0
0.980000 0.060000 0
1.000000 0.060000 0
0.000000 0.080000 0
0.020000 0.080000 0
0.040000 0.080000 0
0.060000 0.080000 0
0.080000 0.080000 0
0.100000 0.080000 0
0.120000 0.080000 0
0.140000 0.080000 0
0.160000 0.080000 0
0.180000 0.080000 0
0.200000 0.080000 0
0.220000 0.080000 0
0.240000 0.080000 0
0.260000 0.080000 0
0.280000 0.080000 0
0.300000 0.080000 0
0.320000 0.080000 0
0.340000 0.080000 0
0.360000 0.080000 0
0.380000 0.080000 0
0.400000 0.080000 0
0.420000 0.080000 0
0.440000 0.080000 0
0.460000 0.080000 0
0.480000 0.080000 0
0.500000 0.080000 0
0.520000 0.080000 0
0.540000 0.080000 0
0.560000 0.080000 0
0.580000 0.080000 0
0.600000 0.080000 0
0.620000 0.080000 0
0.640000 0.080000 0
0.660000 0.080000 0
0.680000 0.080000 0
0.700000 0.080000 0
0.720000 0.080000 0
0.740000 0.080000 0
0.760000 0.080000 0
0.780000 0.080000 0
0.800000 0.080000 0
0.820000 0.080000 0
0.840000 0.080000 0
0.860000 0.080000 0
0.880000 0.080000 0
0.900000 0.080000 0
0.920000 0.080000 0
0.940000 0.080000 0
0.960000 0.080000 0
0.980000 0.080000 0
1.000000 0.080000 0
0.000000 0.100000 0
0.020000 0.100000 0
0.040000 0.100000 0
0.060000 0.100000 0
0.080000 0.100000 0
0.100000 0.100000 0
0.120000 0.100000 0
0.140000 0.100000 0
0.160000 0.100000 0
0.180000 0.100000 0
0.200000 0.100000 0
0.220000 0.100000 0
0.240000 0.100000 0
0.260000 0.100000 0
0.280000 0.100000 0
0.300000 0.100000 0
0.320000 0.100000 0
0.340000 0.100000 0
0.360000 0.100000 0
0.380000 0.100000 0
0.400000 0.100000 0
0.420000 0.100000 0
0.440000 0.100000 0
0.460000 0.100000 0
0.480000 0.100000 0
0.500000 0.100000 0
0.520000 0.100000 0
0.540000 0.100000 0
0.560000 0.100000 0
0.580000 0.100000 0
0.600000 0.100000 0
0.620000 0.100000 0
0.640000 0.100000 0
0.660000 0.100000 0
0.680000 0.100000 0
0.700000 0.100000 0
0.720000 0.100000 0
0.740000 0.100000 0
0.760000 0.100000 0
0.780000 0.100000 0
0.800000 0.100000 0
0.820000 0.100000 0
0.840000 0.100000 0
0.860000 0.100000 0
0.880000 0.100000 0
0.900000 0.100000 0
0.920000 0.100000 0
0.940000 0.100000 0
0.960000 0.100000 0
0.980000 0.100000 0
1.000000 0.100000 0
0.000000 0.120000 0
0.020000 0.120000 0
0.040000 0.120000 0
0.060000 0.120000 0
0.080000 0.120000 0
0.100000 0.120000 0
0.120000 0.120000 0
0.140000 0.120000 0
0.160000 0.120000 0
0.180000 0.120000 0
0.200000 0.120000 0
0.220000 0.120000 0
0.240000 0.120000 0
0.260000 0.120000 0
0.280000 0.120000 0
0.300000 0.120000 0
0.320000 0.120000 0
0.340000 0.120000 0
0.360000 0.120000 0
0.380000 0.120000 0
0.400000 0.120000 0
0.420000 0.120000 0
0.440000 0.120000 0
0.460000 0.120000 0
0.480000 0.120000 0
0.500000 0.120000 0
0.520000 0.120000 0
0.540000 0.120000 0
0.560000 0.120000 0
0.580000 0.120000 0
0.600000 0.120000 0
0.620000 0.120000 0
0.640000 0.120000 0
0.660000 0.120000 0
0.680000 0.120000 0
0.700000 0.120000 0
0.720000 0.120000 0
0.740000 0.120000 0
0.760000 0.120000 0
0.780000 0.120000 0
0.800000 0.120000 0
0.820000 0.120000 0
0.840000 0.120000 0
0.860000 0.120000 0
0.880000 0.120000 0
0.900000 0.120000 0
0.920000 0.120000 0
0.940000 0.120000 0
0.960000 0.120000 0
0.980000 0.120000 0
1.000000 0.120000 0
0.000000 0.140000 0
0.020000 0.140000 0
0.040000 0.140000 0
0.060000 0.140000 0
0.080000 0.140000 0
0.100000 0.140000 0
0.120000 0.140000 0
0.140000 0.140000 0
0.160000 0.140000 0
0.180000 0.140000 0
0.200000 0.140000 0
0.220000 0.140000 0
0.240000 0.140000 0
0.260000 0.140000 0
0.280000 0.140000 0
0.300000 0.140000 0
0.320000 0.140000 0
0.340000 0.140000 0
0.360000 0.140000 0
0.380000 0.140000 0
0.400000 0.140000 0
0.420000 0.140000 0
0.440000 0.140000 0
0.460000 0.140000 0
0.480000 0.140000 0
0.500000 0.140000 0
0.520000 0.140000 0
0.540000 0.140000 0
0.560000 0.140000 0
0.580000 0.140000 0
0.600000 0.140000 0
0.620000 0.140000 0
0.640000 0.140000 0
0.660000 0.140000 0
0.680000 0.140000 0
0.700000 0.140000 0
0.720000 0.140000 0
0.740000 0.140000 0
0.760000 0.140000 0
0.780000 0.140000 0
0.800000 0.140000 0
0.820000 0.140000 0
0.840000 0.140000 0
0.860000 0.140000 0
0.880000 0.140000 0
0.900000 0.140000 0
0.920000 0.140000 0
0.940000 0.140000 0
0.960000 0.140000 0
0.980000 0.140000 0
1.000000 0.140000 0
0.000000 0.160000 0
0.020000 0.160000 0
0.040000 0.160000 0
0.060000 0.160000 0
0.080000 0.160000 0
0.100000 0.160000 0
0.120000 0.160000 0
0.140000 0.160000 0
0.160000 0.160000 0
0.180000 0.160000 0
0.200000 0.160000 0
0.220000 0.160000 0
0.240000 0.160000 0
0.260000 0.160000 0
0.280000 0.160000 0
0.300000 0.160000 0
0.320000 0.160000 0
0.340000 0.160000 0
0.360000 0.160000 0
0.380000 0.160000 0
0.400000 0.160000 0
0.420000 0.160000 0
0.440000 0.160000 0
0.460000 0.160000 0
0.480000 0.160000 0
0.500000 0.160000 0
0.520000 0.160000 0
0.540000 0.160000 0
0.560000 0.160000 0
0.580000 0.160000 0
0.600000 0.160000 0
0.620000 0.160000 0
0.640000 0.160000 0
0.660000 0.160000 0
0.680000 0.160000 0
0.700000 0.160000 0
0.720000 0.160000 0
0.740000 0.160000 0
0.760000 0.160000 0
0.780000 0.160000 0
0.800000 0.160000 0
0.820000 0.160000 0
0.840000 0.160000 0
0.860000 0.160000 0
0.880000 0.160000 0
0.900000 0.160000 0
0.920000 0.160000 0
0.940000 0.160000 0
0.960000 0.160000 0
0.980000 0.160000 0
1.000000 0.160000 0
0.000000 0.180000 0
0.020000 0.180000 0
0.040000 0.180000 0
0.060000 0.180000 0
0.080000 0.180000 0
0.100000 0.180000 0
0.120000 0.180000 0
0.140000 0.180000 0
0.160000 0.180000 0
0.180000 0.180000 0
0.200000 0.180000 0
0.220000 0.180000 0
0.240000 0.180000 0
0.260000 0.180000 0
0.280000 0.180000 0
0.300000 0.180000 0
0.320000 0.180000 0
0.340000 0.180000 0
0.360000 0.180000 0
0.380000 0.180000 0
0.400000 0.180000 0
0.420000 0.180000 0
0.440000 0.180000 0
0.460000 0.180000 0
0.480000 0.180000 0
0.500000 0.180000 0
0.520000 0.180000 0
0.540000 0.180000 0
0.560000 0.180000 0
0.580000 0.180000 0
0.600000 0.180000 0
0.620000 0.180000 0
[...]
POINT_DATA 2601 

VECTORS velocity float
0.000000 0.000000 0
-0.000000 0.000000 0
-0.000000 0.000000 0
-0.000000 0.000000 0
-0.000000 0.000000 0
0.000000 0.000000 0
0.000000 0.000000 0
0.000000 0.000000 0
0.000000 0.000000 0
0.000000 0.000000 0
-0.000000 0.000000 0
-0.000000 0.000000 0
-0.000000 0.000000 0
-0.000000 0.000000 0
0.000000 0.000000 0
0.000000 0.000000 0
0.000000 0.000000 0
0.000000 0.000000 0
-0.000000 0.000000 0
-0.000000 0.000000 0
-0.000000 0.000000 0
-0.000000 0.000000 0
-0.000000 0.000000 0
0.000000 0.000000 0
0.000000 0.000000 0
0.000000 0.000000 0
0.000000 0.000000 0
0.000000 0.000000 0
0.000000 0.000000 0
-0.000000 0.000000 0
-0.000000 0.000000 0
-0.000000 0.000000 0
-0.000000 0.000000 0
-0.000000 0.000000 0
0.000000 0.000000 0
0.000000 0.000000 0
0.000000 0.000000 0
0.000000 0.000000 0
-0.000000 0.000000 0
-0.000000 0.000000 0
-0.000000 0.000000 0
-0.000000 0.000000 0
0.000000 0.000000 0
0.000000 0.000000 0
0.000000 0.000000 0
-0.000000 0.000000 0
-0.000000 0.000000 0
-0.000000 0.000000 0
0.000000 0.000000 0
0.000000 0.000000 0
0.000000 0.000000 0
0.000000 -0.000000 0
-0.000006 0.000011 0
-0.000357 0.000248 0
-0.001135 0.000512 0
-0.002303 0.000732 0
-0.003770 0.000882 0
-0.005416 0.000953 0
-0.007117 0.000948 0
-0.008755 0.000876 0
-0.010225 0.000748 0
-0.011445 0.000578 0
-0.012354 0.000383 0
-0.012917 0.000176 0
-0.013123 -0.000030 0
-0.012976 -0.000227 0
-0.012497 -0.000406 0
-0.011716 -0.000562 0
-0.010674 -0.000692 0
-0.009416 -0.000794 0
-0.007989 -0.000867 0
-0.006442 -0.000912 0
-0.004822 -0.000931 0
-0.003176 -0.000925 0
-0.001544 -0.000897 0
0.000036 -0.000849 0
0.001530 -0.000786 0
0.002910 -0.000710 0
0.004157 -0.000624 0
0.005252 -0.000533 0
0.006187 -0.000438 0
0.006955 -0.000342 0
0.007554 -0.000247 0
0.007985 -0.000154 0
0.008254 -0.000066 0
0.008367 0.000017 0
0.008333 0.000095 0
0.008163 0.000167 0
0.007866 0.000232 0
0.007453 0.000292 0
0.006935 0.000346 0
0.006324 0.000393 0
0.005632 0.000434 0
0.004873 0.000466 0
0.004065 0.000488 0
0.003230 0.000494 0
0.002400 0.000479 0
0.001614 0.000435 0
0.000923 0.000352 0
0.000390 0.000226 0
0.000074 0.000074 0
0.000000 -0.000000 0
0.000000 -0.000000 0
-0.000230 0.000357 0
-0.001099 0.001128 0
-0.002649 0.001946 0
-0.004815 0.002635 0
-0.007454 0.003113 0
-0.010386 0.003348 0
-0.013411 0.003340 0
-0.016337 0.003108 0
-0.018991 0.002689 0
-0.021233 0.002128 0
-0.022957 0.001472 0
-0.024100 0.000769 0
-0.024631 0.000059 0
-0.024552 -0.000626 0
-0.023891 -0.001260 0
-0.022693 -0.001823 0
-0.021020 -0.002301 0
-0.018945 -0.002686 0
-0.016546 -0.002974 0
-0.013904 -0.003167 0
-0.011101 -0.003266 0
-0.008216 -0.003278 0
-0.005324 -0.003211 0
-0.002492 -0.003073 0
0.000219 -0.002875 0
0.002758 -0.002627 0
0.005080 -0.002342 0
0.007154 -0.002031 0
0.008955 -0.001702 0
0.010470 -0.001366 0
0.011690 -0.001030 0
0.012616 -0.000700 0
0.013251 -0.000382 0
0.013608 -0.000080 0
0.013697 0.000204 0
0.013537 0.000468 0
0.013144 0.000710 0
0.012538 0.000930 0
0.011739 0.001129 0
0.010767 0.001303 0
0.009645 0.001451 0
0.008402 0.001567 0
0.007067 0.001643 0
0.005682 0.001665 0
0.004297 0.001617 0
0.002976 0.001476 0
0.001798 0.001223 0
0.000852 0.000849 0
0.000228 0.000390 0
0.000000 -0.000000 0
0.000000 -0.000000 0
-0.000477 0.001108 0
-0.001883 0.002667 0
-0.004169 0.004229 0
-0.007221 0.005538 0
-0.010859 0.006453 0
-0.014859 0.006910 0
-0.018980 0.006900 0
-0.022983 0.006456 0
-0.026651 0.005643 0
-0.029803 0.004544 0
-0.032303 0.003250 0
-0.034061 0.001850 0
-0.035031 0.000423 0
-0.035206 -0.000966 0
-0.034611 -0.002265 0
-0.033298 -0.003433 0
-0.031336 -0.004440 0
-0.028813 -0.005269 0
-0.025824 -0.005908 0
-0.022471 -0.006357 0
-0.018857 -0.006618 0
-0.015085 -0.006702 0
-0.011252 -0.006621 0
-0.007451 -0.006393 0
-0.003764 -0.006036 0
-0.000263 -0.005571 0
0.002988 -0.005020 0
0.005939 -0.004408 0
0.008550 -0.003754 0
0.010797 -0.003076 0
0.012664 -0.002392 0
0.014145 -0.001716 0
0.015241 -0.001058 0
0.015962 -0.000429 0
0.016322 0.000166 0
0.016340 0.000720 0
0.016038 0.001231 0
0.015441 0.001698 0
0.014576 0.002117 0
0.013471 0.002486 0
0.012158 0.002799 0
0.010671 0.003045 0
0.009054 0.003207 0
0.007356 0.003264 0
0.005640 0.003184 0
0.003983 0.002933 0
0.002477 0.002476 0
0.001228 0.001796 0
0.000356 0.000926 0
0.000000 -0.000000 0
0.000000 -0.000000 0
-0.000691 0.002239 0
-0.002585 0.004821 0
-0.005540 0.007285 0
-0.009383 0.009324 0
-0.013897 0.010751 0
-0.018828 0.011470 0
-0.023904 0.011464 0
-0.028858 0.010778 0
-0.033442 0.009509 0
-0.037451 0.007780 0
-0.040724 0.005731 0
-0.043152 0.003498 0
-0.044672 0.001204 0
-0.045267 -0.001046 0
-0.044955 -0.003168 0
-0.043786 -0.005097 0
-0.041829 -0.006785 0
-0.039175 -0.008197 0
-0.035925 -0.009316 0
-0.032192 -0.010134 0
-0.028091 -0.010652 0
-0.023738 -0.010883 0
-0.019247 -0.010845 0
-0.014727 -0.010562 0
-0.010279 -0.010063 0
-0.005994 -0.009379 0
-0.001948 -0.008544 0
0.001789 -0.007593 0
0.005164 -0.006561 0
0.008135 -0.005480 0
0.010675 -0.004377 0
0.012772 -0.003277 0
0.014419 -0.002200 0
0.015622 -0.001161 0
0.016393 -0.000174 0
0.016749 0.000752 0
0.016714 0.001609 0
0.016316 0.002393 0
0.015586 0.003099 0
0.014557 0.003722 0
0.013266 0.004251 0
0.011755 0.004671 0
0.010069 0.004958 0
0.008267 0.005078 0
0.006414 0.004989 0
0.004595 0.004640 0
0.002907 0.003979 0
0.001473 0.002970 0
0.000439 0.001618 0
0.000000 0.000000 0
0.000000 -0.000000 0
-0.000862 0.003693 0
-0.003174 0.007517 0
-0.006713 0.011027 0
-0.011256 0.013895 0
-0.016547 0.015898 0
-0.022309 0.016917 0
-0.028247 0.016929 0
-0.034072 0.015993 0
-0.039520 0.014237 0
-0.044366 0.011827 0
-0.048433 0.008951 0
-0.051595 0.005798 0
-0.053775 0.002537 0
-0.054943 -0.000683 0
-0.055108 -0.003746 0
-0.054310 -0.006559 0
-0.052615 -0.009051 0
-0.050107 -0.011172 0
-0.046887 -0.012891 0
-0.043066 -0.014191 0
-0.038765 -0.015073 0
-0.034106 -0.015546 0
-0.029211 -0.015631 0
-0.024200 -0.015360 0
-0.019187 -0.014770 0
-0.014278 -0.013902 0
-0.009565 -0.012803 0
-0.005129 -0.011520 0
-0.001041 -0.010099 0
0.002645 -0.008588 0
0.005887 -0.007029 0
0.008657 -0.005459 0
0.010941 -0.003908 0
0.012738 -0.002402 0
0.014053 -0.000961 0
0.014900 0.000399 0
0.015301 0.001664 0
0.015282 0.002825 0
0.014877 0.003876 0
0.014120 0.004806 0
0.013051 0.005602 0
0.011714 0.006242 0
0.010157 0.006695 0
0.008440 0.006919 0
0.006629 0.006856 0
0.004809 0.006440 0
0.003084 0.005598 0
0.001583 0.004265 0
0.000478 0.002398 0
0.000000 0.000000 0
0.000000 0.000000 0
-0.000996 0.005413 0
-0.003651 0.010673 0
-0.007689 0.015367 0
-0.012840 0.019159 0
-0.018821 0.021804 0
-0.025330 0.023169 0
-0.032056 0.023225 0
-0.038697 0.022051 0
-0.044977 0.019804 0
-0.050657 0.016694 0
-0.055548 0.012960 0
-0.059511 0.008839 0
-0.062456 0.004551 0
-0.064338 0.000287 0
-0.065153 -0.003801 0
-0.064931 -0.007590 0
-0.063725 -0.010988 0
-0.061610 -0.013926 0
-0.058678 -0.016357 0
-0.055034 -0.018255 0
-0.050794 -0.019613 0
-0.046078 -0.020438 0
-0.041013 -0.020750 0
-0.035723 -0.020585 0
-0.030331 -0.019985 0
-0.024951 -0.019002 0
-0.019690 -0.017692 0
-0.014645 -0.016117 0
-0.009897 -0.014335 0
-0.005515 -0.012408 0
-0.001556 -0.010390 0
0.001937 -0.008332 0
0.004939 -0.006281 0
0.007434 -0.004272 0
0.009419 -0.002336 0
0.010903 -0.000496 0
0.011900 0.001227 0
0.012433 0.002817 0
0.012531 0.004261 0
0.012232 0.005548 0
0.011573 0.006657 0
0.010598 0.007565 0
0.009356 0.008232 0
0.007902 0.008607 0
0.006302 0.008619 0
0.004640 0.008185 0
0.003017 0.007204 0
0.001569 0.005576 0
0.000480 0.003201 0
0.000000 0.000000 0
0.000000 0.000000 0
-0.001098 0.007344 0
-0.004029 0.014211 0
-0.008482 0.020217 0
-0.014156 0.025028 0
-0.020741 0.028387 0
-0.027919 0.030151 0
-0.035368 0.030296 0
-0.042777 0.028914 0
-0.049862 0.026197 0
-0.056376 0.022399 0
-0.062121 0.017805 0
-0.066946 0.012705 0
-0.070749 0.007364 0
-0.073471 0.002014 0
-0.075091 -0.003153 0
-0.075626 -0.007988 0
-0.075112 -0.012372 0
-0.073611 -0.016219 0
-0.071201 -0.019466 0
-0.067973 -0.022076 0
-0.064033 -0.024029 0
-0.059495 -0.025326 0
-0.054480 -0.025986 0
-0.049114 -0.026043 0
-0.043521 -0.025542 0
-0.037824 -0.024543 0
-0.032139 -0.023109 0
-0.026574 -0.021313 0
-0.021225 -0.019229 0
-0.016177 -0.016928 0
-0.011499 -0.014482 0
-0.007248 -0.011955 0
-0.003467 -0.009405 0
-0.000183 -0.006882 0
0.002588 -0.004429 0
0.004842 -0.002082 0
0.006587 0.000134 0
0.007836 0.002194 0
0.008612 0.004077 0
0.008948 0.005764 0
0.008879 0.007235 0
0.008447 0.008459 0
0.007696 0.009392 0
0.006678 0.009972 0
0.005455 0.010118 0
0.004103 0.009726 0
0.002720 0.008669 0
0.001440 0.006802 0
0.000448 0.003968 0
0.000000 0.000000 0
0.000000 0.000000 0
-0.001174 0.009443 0
-0.004323 0.018058 0
-0.009114 0.025494 0
-0.015224 0.031417 0
-0.022330 0.035567 0
-0.030101 0.037795 0
-0.038208 0.038084 0
-0.046336 0.036545 0
-0.054196 0.033403 0
-0.061537 0.028953 0
-0.068155 0.023530 0
-0.073890 0.017467 0
-0.078628 0.011076 0
-0.082295 0.004629 0
-0.084854 -0.001646 0
-0.086303 -0.007570 0
-0.086662 -0.013002 0
-0.085972 -0.017837 0
-0.084293 -0.021995 0
-0.081699 -0.025423 0
-0.078281 -0.028091 0
-0.074140 -0.029990 0
-0.069388 -0.031131 0
-0.064143 -0.031544 0
-0.058529 -0.031275 0
-0.052672 -0.030384 0
-0.046693 -0.028943 0
-0.040710 -0.027031 0
-0.034831 -0.024732 0
-0.029157 -0.022133 0
-0.023771 -0.019318 0
-0.018746 -0.016364 0
-0.014140 -0.013346 0
-0.009997 -0.010327 0
-0.006345 -0.007361 0
-0.003202 -0.004496 0
-0.000573 -0.001767 0
0.001546 0.000792 0
0.003166 0.003150 0
0.004309 0.005280 0
0.005005 0.007158 0
0.005290 0.008748 0
0.005204 0.010001 0
0.004791 0.010848 0
0.004105 0.011195 0
0.003213 0.010920 0
0.002204 0.009867 0
0.001204 0.007847 0
0.000386 0.004642 0
0.000000 0.000000 0
0.000000 0.000000 0
-0.001230 0.011668 0
-0.004545 0.022150 0
-0.009602 0.031118 0
-0.016069 0.038243 0
-0.023613 0.043264 0
-0.031898 0.046029 0
-0.040593 0.046530 0
-0.049383 0.044902 0
-0.057979 0.041399 0
-0.066128 0.036358 0
-0.073623 0.030158 0
-0.080296 0.023178 0
-0.086024 0.015769 0
-0.090720 0.008241 0
-0.094327 0.000855 0
-0.096821 -0.006180 0
-0.098204 -0.012704 0
-0.098497 -0.018588 0
-0.097736 -0.023739 0
-0.095976 -0.028087 0
-0.093286 -0.031588 0
-0.089749 -0.034220 0
-0.085463 -0.035984 0
-0.080534 -0.036901 0
-0.075081 -0.037014 0
-0.069226 -0.036379 0
-0.063094 -0.035071 0
-0.056809 -0.033175 0
-0.050490 -0.030782 0
-0.044248 -0.027989 0
-0.038183 -0.024892 0
-0.032385 -0.021585 0
-0.026928 -0.018154 0
-0.021873 -0.014678 0
-0.017264 -0.011225 0
-0.013136 -0.007854 0
-0.009506 -0.004613 0
-0.006383 -0.001545 0
-0.003767 0.001314 0
-0.001653 0.003925 0
-0.000023 0.006254 0
0.001150 0.008260 0
0.001898 0.009891 0
0.002255 0.011071 0
0.002265 0.011696 0
0.001981 0.011626 0
0.001479 0.010678 0
0.000865 0.008620 0
0.000296 0.005171 0
0.000000 -0.000000 0
0.000000 0.000000 0
-0.001268 0.013988 0
-0.004703 0.026429 0
-0.009961 0.037017 0
-0.016708 0.045427 0
-0.024608 0.051396 0
-0.033327 0.054776 0
-0.042537 0.055569 0
-0.051923 0.053931 0
-0.061202 0.050148 0
-0.070124 0.044597 0
-0.078479 0.037698 0
-0.086097 0.029869 0
-0.092845 0.021499 0
-0.098622 0.012932 0
-0.103356 0.004456 0
-0.107000 -0.003692 0
-0.109533 -0.011327 0
-0.110953 -0.018305 0
-0.111273 -0.024516 0
-0.110524 -0.029873 0
-0.108749 -0.034318 0
-0.106011 -0.037814 0
-0.102386 -0.040346 0
-0.097967 -0.041925 0
-0.092859 -0.042583 0
-0.087178 -0.042371 0
-0.081046 -0.041360 0
-0.074591 -0.039635 0
-0.067937 -0.037294 0
-0.061207 -0.034440 0
-0.054516 -0.031180 0
-0.047969 -0.027620 0
-0.041657 -0.023859 0
-0.035658 -0.019991 0
-0.030038 -0.016098 0
-0.024845 -0.012254 0
-0.020117 -0.008520 0
-0.015876 -0.004947 0
-0.012136 -0.001580 0
-0.008903 0.001536 0
-0.006179 0.004355 0
-0.003954 0.006827 0
-0.002207 0.008896 0
-0.000918 0.010481 0
-0.000056 0.011469 0
0.000414 0.011706 0
0.000547 0.010983 0
0.000426 0.009030 0
0.000178 0.005506 0
0.000000 -0.000000 0
0.000000 0.000000 0
-0.001291 0.016371 0
-0.004806 0.030843 0
-0.010205 0.043122 0
-0.017159 0.052891 0
-0.025337 0.059884 0
-0.034408 0.063958 0
-0.044050 0.065126 0
-0.053959 0.063568 0
-0.063857 0.059599 0
-0.073498 0.053635 0
-0.082675 0.046131 0
-0.091217 0.037543 0
-0.098985 0.028293 0
-0.105867 0.018752 0
-0.111775 0.009233 0
-0.116642 -0.000003 0
-0.120419 -0.008750 0
-0.123081 -0.016848 0
-0.124617 -0.024168 0
-0.125030 -0.030611 0
-0.124339 -0.036100 0
-0.122578 -0.040583 0
-0.119802 -0.044027 0
-0.116082 -0.046428 0
-0.111505 -0.047803 0
-0.106175 -0.048192 0
-0.100208 -0.047659 0
-0.093729 -0.046284 0
-0.086867 -0.044165 0
-0.079752 -0.041409 0
-0.072511 -0.038131 0
-0.065262 -0.034445 0
-0.058116 -0.030465 0
-0.051169 -0.026297 0
-0.044505 -0.022038 0
-0.038194 -0.017775 0
-0.032290 -0.013582 0
-0.026836 -0.009526 0
-0.021861 -0.005659 0
-0.017386 -0.002032 0
-0.013427 0.001304 0
-0.009994 0.004289 0
-0.007093 0.006855 0
-0.004715 0.008920 0
-0.002850 0.010365 0
-0.001484 0.011023 0
-0.000588 0.010666 0
-0.000113 0.008989 0
0.000032 0.005597 0
0.000000 -0.000000 0
0.000000 -0.000000 0
-0.001301 0.018793 0
-0.004859 0.035343 0
-0.010346 0.049370 0
-0.017439 0.060559 0
-0.025816 0.068645 0
-0.035156 0.073490 0
-0.045148 0.075121 0
-0.055497 0.073737 0
-0.065934 0.069686 0
-0.076224 0.063416 0
-0.086164 0.055417 0
-0.095585 0.046178 0
-0.104343 0.036149 0
-0.112320 0.025722 0
-0.119415 0.015231 0
-0.125541 0.004952 0
-0.130623 -0.004888 0
-0.134611 -0.014108 0
-0.137467 -0.022567 0
-0.139168 -0.030152 0
-0.139704 -0.036770 0
-0.139082 -0.042350 0
-0.137328 -0.046843 0
-0.134487 -0.050223 0
-0.130626 -0.052489 0
-0.125830 -0.053667 0
-0.120203 -0.053806 0
-0.113862 -0.052976 0
-0.106936 -0.051271 0
-0.099559 -0.048797 0
-0.091866 -0.045670 0
-0.083991 -0.042014 0
-0.076058 -0.037952 0
-0.068183 -0.033601 0
-0.060471 -0.029074 0
-0.053010 -0.024470 0
-0.045878 -0.019878 0
-0.039136 -0.015375 0
-0.032835 -0.011029 0
-0.027014 -0.006898 0
-0.021705 -0.003037 0
-0.016935 0.000493 0
-0.012731 0.003616 0
-0.009116 0.006238 0
-0.006104 0.008238 0
-0.003705 0.009444 0
-0.001924 0.009613 0
-0.000751 0.008410 0
-0.000142 0.005393 0
0.000000 -0.000000 0
0.000000 -0.000000 0
-0.001300 0.021230 0
-0.004871 0.039888 0
-0.010396 0.055703 0
-0.017565 0.068361 0
-0.026067 0.077601 0
-0.035593 0.083289 0
-0.045847 0.085466 0
-0.056546 0.084354 0
-0.067435 0.080327 0
-0.078288 0.073865 0
-0.088912 0.065492 0
-0.099140 0.055722 0
-0.108830 0.045029 0
-0.117860 0.033824 0
-0.126116 0.022453 0
-0.133499 0.011205 0
-0.139914 0.000320 0
-0.145278 -0.010004 0
-0.149525 -0.019611 0
-0.152608 -0.028375 0
-0.154488 -0.036186 0
-0.155142 -0.042959 0
-0.154565 -0.048622 0
-0.152773 -0.053130 0
-0.149807 -0.056460 0
-0.145727 -0.058615 0
-0.140620 -0.059627 0
-0.134591 -0.059551 0
-0.127761 -0.058468 0
-0.120265 -0.056479 0
-0.112244 -0.053699 0
-0.103840 -0.050254 0
-0.095194 -0.046272 0
-0.086439 -0.041884 0
-0.077699 -0.037211 0
-0.069085 -0.032368 0
-0.060697 -0.027457 0
-0.052618 -0.022568 0
-0.044921 -0.017780 0
-0.037668 -0.013162 0
-0.030913 -0.008775 0
-0.024701 -0.004685 0
-0.019078 -0.000964 0
-0.014094 0.002293 0
-0.009799 0.004954 0
-0.006238 0.006843 0
-0.003456 0.007712 0
-0.001487 0.007207 0
-0.000345 0.004846 0
0.000000 -0.000000 0
0.000000 -0.000000 0
-0.001289 0.023663 0
-0.004845 0.044439 0
-0.010364 0.062065 0
-0.017551 0.076230 0
-0.026108 0.086674 0
-0.035741 0.093270 0
-0.046168 0.096073 0
-0.057124 0.095325 0
-0.068368 0.091429 0
-0.079687 0.084893 0
-0.090898 0.076269 0
-0.101841 0.066097 0
-0.112378 0.054868 0
-0.122385 0.043008 0
-0.131744 0.030871 0
-0.140345 0.018750 0
-0.148075 0.006891 0
-0.154827 -0.004496 0
-0.160503 -0.015237 0
-0.165029 -0.025189 0
-0.168338 -0.034236 0
-0.170377 -0.042273 0
-0.171110 -0.049211 0
-0.170520 -0.054981 0
-0.168615 -0.059536 0
-0.165430 -0.062854 0
-0.161026 -0.064942 0
-0.155489 -0.065835 0
-0.148930 -0.065597 0
-0.141475 -0.064314 0
-0.133268 -0.062095 0
-0.124458 -0.059064 0
-0.115197 -0.055353 0
-0.105635 -0.051096 0
-0.095916 -0.046427 0
-0.086173 -0.041472 0
-0.076527 -0.036346 0
-0.067087 -0.031151 0
-0.057951 -0.025978 0
-0.049203 -0.020906 0
-0.040922 -0.016005 0
-0.033180 -0.011342 0
-0.026046 -0.006991 0
-0.019593 -0.003041 0
-0.013903 0.000383 0
-0.009065 0.003102 0
-0.005172 0.004861 0
-0.002315 0.005299 0
-0.000575 0.003907 0
0.000000 -0.000000 0
0.000000 -0.000000 0
-0.001271 0.026075 0
-0.004787 0.048963 0
-0.010263 0.068410 0
-0.017415 0.084104 0
-0.025962 0.095791 0
-0.035625 0.103349 0
-0.046139 0.106849 0
-0.057256 0.106553 0
-0.068753 0.102890 0
-0.080430 0.096395 0
-0.092117 0.087645 0
-0.103664 0.077202 0
-0.114939 0.065573 0
-0.125821 0.053191 0
-0.136191 0.040414 0
-0.145931 0.027536 0
-0.154919 0.014802 0
-0.163029 0.002424 0
-0.170137 -0.009409 0
-0.176130 -0.020540 0
-0.180918 -0.030838 0
-0.184420 -0.040187 0
-0.186566 -0.048479 0
-0.187307 -0.055625 0
-0.186616 -0.061549 0
-0.184494 -0.066204 0
-0.180972 -0.069568 0
-0.176113 -0.071647 0
-0.170005 -0.072482 0
-0.162767 -0.072141 0
-0.154535 -0.070717 0
-0.145461 -0.068325 0
-0.135708 -0.065095 0
-0.125438 -0.061164 0
-0.114814 -0.056673 0
-0.103990 -0.051757 0
-0.093113 -0.046542 0
-0.082317 -0.041144 0
-0.071723 -0.035664 0
-0.061444 -0.030190 0
-0.051585 -0.024799 0
-0.042245 -0.019562 0
-0.033522 -0.014551 0
-0.025521 -0.009850 0
-0.018354 -0.005574 0
-0.012150 -0.001887 0
-0.007056 0.000963 0
-0.003230 0.002610 0
-0.000831 0.002530 0
0.000000 -0.000000 0
0.000000 0.000000 0
-0.001245 0.028451 0
-0.004703 0.053432 0
-0.010103 0.074694 0
-0.017174 0.091928 0
-0.025650 0.104883 0
-0.035271 0.113447 0
-0.045789 0.117704 0
-0.056973 0.117939 0
-0.068618 0.114603 0
-0.080540 0.108257 0
-0.092583 0.099503 0
-0.104609 0.088919 0
-0.116495 0.077025 0
-0.128125 0.064260 0
-0.139384 0.050981 0
-0.150152 0.037477 0
-0.160302 0.023989 0
-0.169696 0.010722 0
-0.178191 -0.002135 0
-0.185640 -0.014408 0
-0.191921 -0.025947 0
-0.196926 -0.036625 0
-0.200557 -0.046324 0
-0.202729 -0.054931 0
-0.203379 -0.062349 0
-0.202472 -0.068498 0
-0.200003 -0.073324 0
-0.196003 -0.076802 0
-0.190535 -0.078942 0
-0.183699 -0.079784 0
-0.175618 -0.079401 0
-0.166444 -0.077892 0
-0.156341 -0.075376 0
-0.145486 -0.071990 0
-0.134056 -0.067875 0
-0.122229 -0.063172 0
-0.110173 -0.058019 0
-0.098050 -0.052542 0
-0.086009 -0.046851 0
-0.074190 -0.041044 0
-0.062728 -0.035204 0
-0.051750 -0.029405 0
-0.041387 -0.023715 0
-0.031776 -0.018209 0
-0.023068 -0.012988 0
-0.015435 -0.008196 0
-0.009075 -0.004059 0
-0.004217 -0.000926 0
-0.001109 0.000677 0
0.000000 -0.000000 0
0.000000 0.000000 0
-0.001215 0.030778 0
-0.004599 0.057821 0
-0.009893 0.080880 0
-0.016843 0.099652 0
-0.025197 0.113888 0
-0.034710 0.123488 0
-0.045152 0.128551 0
-0.056312 0.129382 0
-0.068000 0.126457 0
-0.080052 0.120361 0
-0.092325 0.111714 0
-0.104695 0.101114 0
-0.117049 0.089089 0
-0.129281 0.076080 0
-0.141283 0.062441 0
-0.152938 0.048454 0
-0.164118 0.034346 0
-0.174680 0.020314 0
-0.184469 0.006535 0
-0.193321 -0.006811 0
-0.201069 -0.019553 0
-0.207581 -0.031551 0
-0.212730 -0.042676 0
-0.216399 -0.052802 0
-0.218490 -0.061806 0
-0.218927 -0.069580 0
-0.217666 -0.076037 0
-0.214700 -0.081115 0
-0.210060 -0.084787 0
-0.203817 -0.087058 0
-0.196078 -0.087971 0
-0.186983 -0.087602 0
-0.176696 -0.086053 0
-0.165401 -0.083450 0
-0.153290 -0.079931 0
-0.140560 -0.075640 0
-0.127404 -0.070722 0
-0.114011 -0.065309 0
-0.100560 -0.059523 0
-0.087221 -0.053471 0
-0.074158 -0.047239 0
-0.061531 -0.040903 0
-0.049505 -0.034525 0
-0.038251 -0.028170 0
-0.027962 -0.021916 0
-0.018854 -0.015880 0
-0.011186 -0.010255 0
-0.005255 -0.005356 0
-0.001404 -0.001686 0
0.000000 -0.000000 0
0.000000 0.000000 0
-0.001181 0.033049 0
-0.004478 0.062110 0
-0.009645 0.086938 0
-0.016441 0.107232 0
-0.024626 0.122749 0
-0.033972 0.133402 0
-0.044265 0.139306 0
-0.055313 0.140787 0
-0.066943 0.138343 0
-0.079009 0.132582 0
-0.091384 0.124145 0
-0.103957 0.113643 0
-0.116629 0.101612 0
-0.129304 0.088494 0
-0.141883 0.074638 0
-0.154258 0.060312 0
-0.166305 0.045731 0
-0.177883 0.031074 0
-0.188832 0.016506 0
-0.198978 0.002192 0
-0.208132 -0.011687 0