# vtk DataFile Version 2.0
generated by CFD-lab course output (written by Tobias Neckel) 
ASCII

DATASET STRUCTURED_GRID
DIMENSIONS  51 51 1 
POINTS 2601 float

0.000000 0.000000 0
0.020000 0.000000 0
0.040000 0.000000 0
0.060000 0.000000 0
0.080000 0.000000 0
0.100000 0.000000 0
0.120000 0.000000 0
0.140000 0.000000 0
0.160000 0.000000 0
0.180000 0.000000 0
0.200000 0.000000 0
0.220000 0.000000 0
0.240000 0.000000 0
0.260000 0.000000 0
0.280000 0.000000 0
0.300000 0.000000 0
0.320000 0.000000 0
0.340000 0.000000 0
0.360000 0.000000 0
0.380000 0.000000 0
0.400000 0.000000 0
0.420000 0.000000 0
0.440000 0.000000 0
0.460000 0.000000 0
0.480000 0.000000 0
0.500000 0.000000 0
0.520000 0.000000 0
0.540000 0.000000 0
0.560000 0.000000 0
0.580000 0.000000 0
0.600000 0.000000 0
0.620000 0.000000 0
0.640000 0.000000 0
0.660000 0.000000 0
0.680000 0.000000 0
0.700000 0.000000 0
0.720000 0.000000 0
0.740000 0.000000 0
0.760000 0.000000 0
0.780000 0.000000 0
0.800000 0.000000 0
0.820000 0.000000 0
0.840000 0.000000 0
0.860000 0.000000 0
0.880000 0.000000 0
0.900000 0.000000 0
0.920000 0.000000 0
0.940000 0.000000 0
0.960000 0.000000 0
0.980000 0.000000 0
1.000000 0.000000 0
0.000000 0.020000 0
0.020000 0.020000 0
0.040000 0.020000 0
0.060000 0.020000 0
0.080000 0.020000 0
0.100000 0.020000 0
0.120000 0.020000 0
0.140000 0.020000 0
0.160000 0.020000 0
0.180000 0.020000 0
0.200000 0.020000 0
0.220000 0.020000 0
0.240000 0.020000 0
0.260000 0.020000 0
0.280000 0.020000 0
0.300000 0.020000 0
0.320000 0.020000 0
0.340000 0.020000 0
0.360000 0.020000 0
0.380000 0.020000 0
0.400000 0.020000 0
0.420000 0.020000 0
0.440000 0.020000 0
0.460000 0.020000 0
0.480000 0.020000 0
0.500000 0.020000 0
0.520000 0.020000 0
0.540000 0.020000 0
0.560000 0.020000 0
0.580000 0.020000 0
0.600000 0.020000 0
0.620000 0.020000 0
0.640000 0.020000 0
0.660000 0.020000 0
0.680000 0.020000 0
0.700000 0.020000 0
0.720000 0.020000 0
0.740000 0.020000 0
0.760000 0.020000 0
0.780000 0.020000 0
0.800000 0.020000 0
0.820000 0.020000 0
0.840000 0.020000 0
0.860000 0.020000 0
0.880000 0.020000 0
0.900000 0.020000 0
0.920000 0.020000 0
0.940000 0.020000 0
0.960000 0.020000 0
0.980000 0.020000 0
1.000000 0.020000 0
0.000000 0.040000 0
0.020000 0.040000 0
0.040000 0.040000 0
0.060000 0.040000 0
0.080000 0.040000 0
0.100000 0.040000 0
0.120000 0.040000 0
0.140000 0.040000 0
0.160000 0.040000 0
0.180000 0.040000 0
0.200000 0.040000 0
0.220000 0.040000 0
0.240000 0.040000 0
0.260000 0.040000 0
0.280000 0.040000 0
0.300000 0.040000 0
0.320000 0.040000 0
0.340000 0.040000 0
0.360000 0.040000 0
0.380000 0.040000 0
0.400000 0.040000 0
0.420000 0.040000 0
0.440000 0.040000 0
0.460000 0.040000 0
0.480000 0.040000 0
0.500000 0.040000 0
0.520000 0.040000 0
0.540000 0.040000 0
0.560000 0.040000 0
0.580000 0.040000 0
0.600000 0.040000 0
0.620000 0.040000 0
0.640000 0.040000 0
0.660000 0.040000 0
0.680000 0.040000 0
0.700000 0.040000 0
0.720000 0.040000 0
0.740000 0.040000 0
0.760000 0.040000 0
0.780000 0.040000 0
0.800000 0.040000 0
0.820000 0.040000 0
0.840000 0.040000 0
0.860000 0.040000 0
0.880000 0.040000 0
0.900000 0.040000 0
0.920000 0.040000 0
0.940000 0.040000 0
0.960000 0.040000 0
0.980000 0.040000 0
1.000000 0.040000 0
0.000000 0.060000 0
0.020000 0.060000 0
0.040000 0.060000 0
0.060000 0.060000 0
0.080000 0.060000 0
0.100000 0.060000 0
0.120000 0.060000 0
0.140000 0.060000 0
0.160000 0.060000 0
0.180000 0.060000 0
0.200000 0.060000 0
0.220000 0.060000 0
0.240000 0.060000 0
0.260000 0.060000 0
0.280000 0.060000 0
0.300000 0.060000 0
0.320000 0.060000 0
0.340000 0.060000 0
0.360000 0.060000 0
0.380000 0.060000 0
0.400000 0.060000 0
0.420000 0.060000 0
0.440000 0.060000 0
0.460000 0.060000 0
0.480000 0.060000 0
0.500000 0.060000 0
0.520000 0.060000 0
0.540000 0.060000 0
0.560000 0.060000 0
0.580000 0.060000 0
0.600000 0.060000 0
0.620000 0.060000 0
0.640000 0.060000 0
0.660000 0.060000 0
0.680000 0.060000 0
0.700000 0.060000 0
0.720000 0.060000 0
0.740000 0.060000 0
0.760000 0.060000 0
0.780000 0.060000 0
0.800000 0.060000 0
0.820000 0.060000 0
0.840000 0.060000 0
0.860000 0.060000 0
0.880000 0.060000 0
0.900000 0.060000 0
0.920000 0.060000 0
0.940000 0.060000 0
0.960000 0.060000 0
0.980000 0.060000 0
1.000000 0.060000 0
0.000000 0.080000 0
0.020000 0.080000 0
0.040000 0.080000 0
0.060000 0.080000 0
0.080000 0.080000 0
0.100000 0.080000 0
0.120000 0.080000 0
0.140000 0.080000 0
0.160000 0.080000 0
0.180000 0.080000 0
0.200000 0.080000 0
0.220000 0.080000 0
0.240000 0.080000 0
0.260000 0.080000 0
0.280000 0.080000 0
0.300000 0.080000 0
0.320000 0.080000 0
0.340000 0.080000 0
0.360000 0.080000 0
0.380000 0.080000 0
0.400000 0.080000 0
0.420000 0.080000 0
0.440000 0.080000 0
0.460000 0.080000 0
0.480000 0.080000 0
0.500000 0.080000 0
0.520000 0.080000 0
0.540000 0.080000 0
0.560000 0.080000 0
0.580000 0.080000 0
0.600000 0.080000 0
0.620000 0.080000 0
0.640000 0.080000 0
0.660000 0.080000 0
0.680000 0.080000 0
0.700000 0.080000 0
0.720000 0.080000 0
0.740000 0.080000 0
0.760000 0.080000 0
0.780000 0.080000 0
0.800000 0.080000 0
0.820000 0.080000 0
0.840000 0.080000 0
0.860000 0.080000 0
0.880000 0.080000 0
0.900000 0.080000 0
0.920000 0.080000 0
0.940000 0.080000 0
0.960000 0.080000 0
0.980000 0.080000 0
1.000000 0.080000 0
0.000000 0.100000 0
0.020000 0.100000 0
0.040000 0.100000 0
0.060000 0.100000 0
0.080000 0.100000 0
0.100000 0.100000 0
0.120000 0.100000 0
0.140000 0.100000 0
0.160000 0.100000 0
0.180000 0.100000 0
0.200000 0.100000 0
0.220000 0.100000 0
0.240000 0.100000 0
0.260000 0.100000 0
0.280000 0.100000 0
0.300000 0.100000 0
0.320000 0.100000 0
0.340000 0.100000 0
0.360000 0.100000 0
0.380000 0.100000 0
0.400000 0.100000 0
0.420000 0.100000 0
0.440000 0.100000 0
0.460000 0.100000 0
0.480000 0.100000 0
0.500000 0.100000 0
0.520000 0.100000 0
0.540000 0.100000 0
0.560000 0.100000 0
0.580000 0.100000 0
0.600000 0.100000 0
0.620000 0.100000 0
0.640000 0.100000 0
0.660000 0.100000 0
0.680000 0.100000 0
0.700000 0.100000 0
0.720000 0.100000 0
0.740000 0.100000 0
0.760000 0.100000 0
0.780000 0.100000 0
0.800000 0.100000 0
0.820000 0.100000 0
0.840000 0.100000 0
0.860000 0.100000 0
0.880000 0.100000 0
0.900000 0.100000 0
0.920000 0.100000 0
0.940000 0.100000 0
0.960000 0.100000 0
0.980000 0.100000 0
1.000000 0.100000 0
0.000000 0.120000 0
0.020000 0.120000 0
0.040000 0.120000 0
0.060000 0.120000 0
0.080000 0.120000 0
0.100000 0.120000 0
0.120000 0.120000 0
0.140000 0.120000 0
0.160000 0.120000 0
0.180000 0.120000 0
0.200000 0.120000 0
0.220000 0.120000 0
0.240000 0.120000 0
0.260000 0.120000 0
0.280000 0.120000 0
0.300000 0.120000 0
0.320000 0.120000 0
0.340000 0.120000 0
0.360000 0.120000 0
0.380000 0.120000 0
0.400000 0.120000 0
0.420000 0.120000 0
0.440000 0.120000 0
0.460000 0.120000 0
0.480000 0.120000 0
0.500000 0.120000 0
0.520000 0.120000 0
0.540000 0.120000 0
0.560000 0.120000 0
0.580000 0.120000 0
0.600000 0.120000 0
0.620000 0.120000 0
0.640000 0.120000 0
0.660000 0.120000 0
0.680000 0.120000 0
0.700000 0.120000 0
0.720000 0.120000 0
0.740000 0.120000 0
0.760000 0.120000 0
0.780000 0.120000 0
0.800000 0.120000 0
0.820000 0.120000 0
0.840000 0.120000 0
0.860000 0.120000 0
0.880000 0.120000 0
0.900000 0.120000 0
0.920000 0.120000 0
0.940000 0.120000 0
0.960000 0.120000 0
0.980000 0.120000 0
1.000000 0.120000 0
0.000000 0.140000 0
0.020000 0.140000 0
0.040000 0.140000 0
0.060000 0.140000 0
0.080000 0.140000 0
0.100000 0.140000 0
0.120000 0.140000 0
0.140000 0.140000 0
0.160000 0.140000 0
0.180000 0.140000 0
0.200000 0.140000 0
0.220000 0.140000 0
0.240000 0.140000 0
0.260000 0.140000 0
0.280000 0.140000 0
0.300000 0.140000 0
0.320000 0.140000 0
0.340000 0.140000 0
0.360000 0.140000 0
0.380000 0.140000 0
0.400000 0.140000 0
0.420000 0.140000 0
0.440000 0.140000 0
0.460000 0.140000 0
0.480000 0.140000 0
0.500000 0.140000 0
0.520000 0.140000 0
0.540000 0.140000 0
0.560000 0.140000 0
0.580000 0.140000 0
0.600000 0.140000 0
0.620000 0.140000 0
0.640000 0.140000 0
0.660000 0.140000 0
0.680000 0.140000 0
0.700000 0.140000 0
0.720000 0.140000 0
0.740000 0.140000 0
0.760000 0.140000 0
0.780000 0.140000 0
0.800000 0.140000 0
0.820000 0.140000 0
0.840000 0.140000 0
0.860000 0.140000 0
0.880000 0.140000 0
0.900000 0.140000 0
0.920000 0.140000 0
0.940000 0.140000 0
0.960000 0.140000 0
0.980000 0.140000 0
1.000000 0.140000 0
0.000000 0.160000 0
0.020000 0.160000 0
0.040000 0.160000 0
0.060000 0.160000 0
0.080000 0.160000 0
0.100000 0.160000 0
0.120000 0.160000 0
0.140000 0.160000 0
0.160000 0.160000 0
0.180000 0.160000 0
0.200000 0.160000 0
0.220000 0.160000 0
0.240000 0.160000 0
0.260000 0.160000 0
0.280000 0.160000 0
0.300000 0.160000 0
0.320000 0.160000 0
0.340000 0.160000 0
0.360000 0.160000 0
0.380000 0.160000 0
0.400000 0.160000 0
0.420000 0.160000 0
0.440000 0.160000 0
0.460000 0.160000 0
0.480000 0.160000 0
0.500000 0.160000 0
0.520000 0.160000 0
0.540000 0.160000 0
0.560000 0.160000 0
0.580000 0.160000 0
0.600000 0.160000 0
0.620000 0.160000 0
0.640000 0.160000 0
0.660000 0.160000 0
0.680000 0.160000 0
0.700000 0.160000 0
0.720000 0.160000 0
0.740000 0.160000 0
0.760000 0.160000 0
0.780000 0.160000 0
0.800000 0.160000 0
0.820000 0.160000 0
0.840000 0.160000 0
0.860000 0.160000 0
0.880000 0.160000 0
0.900000 0.160000 0
0.920000 0.160000 0
0.940000 0.160000 0
0.960000 0.160000 0
0.980000 0.160000 0
1.000000 0.160000 0
0.000000 0.180000 0
0.020000 0.180000 0
0.040000 0.180000 0
0.060000 0.180000 0
0.080000 0.180000 0
0.100000 0.180000 0
0.120000 0.180000 0
0.140000 0.180000 0
0.160000 0.180000 0
0.180000 0.180000 0
0.200000 0.180000 0
0.220000 0.180000 0
0.240000 0.180000 0
0.260000 0.180000 0
0.280000 0.180000 0
0.300000 0.180000 0
0.320000 0.180000 0
0.340000 0.180000 0
0.360000 0.180000 0
0.380000 0.180000 0
0.400000 0.180000 0
0.420000 0.180000 0
0.440000 0.180000 0
0.460000 0.180000 0
0.480000 0.180000 0
0.500000 0.180000 0
0.520000 0.180000 0
0.540000 0.180000 0
0.560000 0.180000 0
0.580000 0.180000 0
0.600000 0.180000 0
0.620000 0.180000 0
[...]
POINT_DATA 2601 

VECTORS velocity float
0.000000 0.000000 0
-0.000000 0.000000 0
0.000000 0.000000 0
0.000000 0.000000 0
0.000000 0.000000 0
0.000000 0.000000 0
0.000000 0.000000 0
-0.000000 0.000000 0
-0.000000 0.000000 0
-0.000000 0.000000 0
-0.000000 0.000000 0
0.000000 0.000000 0
0.000000 0.000000 0
0.000000 0.000000 0
0.000000 0.000000 0
-0.000000 0.000000 0
-0.000000 0.000000 0
-0.000000 0.000000 0
-0.000000 0.000000 0
-0.000000 0.000000 0
-0.000000 0.000000 0
0.000000 0.000000 0
0.000000 0.000000 0
0.000000 0.000000 0
0.000000 0.000000 0
0.000000 0.000000 0
0.000000 0.000000 0
-0.000000 0.000000 0
-0.000000 0.000000 0
-0.000000 0.000000 0
-0.000000 0.000000 0
-0.000000 0.000000 0
-0.000000 0.000000 0
0.000000 0.000000 0
0.000000 0.000000 0
0.000000 0.000000 0
0.000000 0.000000 0
0.000000 0.000000 0
0.000000 0.000000 0
0.000000 0.000000 0
0.000000 0.000000 0
0.000000 0.000000 0
0.000000 0.000000 0
0.000000 0.000000 0
0.000000 0.000000 0
0.000000 0.000000 0
0.000000 0.000000 0
0.000000 0.000000 0
0.000000 0.000000 0
0.000000 0.000000 0
0.000000 0.000000 0
0.000000 -0.000000 0
-0.000006 0.000010 0
-0.000357 0.000248 0
-0.001133 0.000513 0
-0.002300 0.000732 0
-0.003766 0.000881 0
-0.005411 0.000952 0
-0.007111 0.000947 0
-0.008748 0.000875 0
-0.010217 0.000747 0
-0.011435 0.000578 0
-0.012343 0.000383 0
-0.012906 0.000177 0
-0.013112 -0.000030 0
-0.012965 -0.000226 0
-0.012486 -0.000406 0
-0.011706 -0.000562 0
-0.010664 -0.000692 0
-0.009407 -0.000793 0
-0.007980 -0.000867 0
-0.006434 -0.000912 0
-0.004815 -0.000930 0
-0.003170 -0.000924 0
-0.001539 -0.000896 0
0.000040 -0.000849 0
0.001533 -0.000785 0
0.002913 -0.000709 0
0.004159 -0.000624 0
0.005254 -0.000533 0
0.006188 -0.000438 0
0.006955 -0.000342 0
0.007554 -0.000246 0
0.007985 -0.000154 0
0.008253 -0.000066 0
0.008366 0.000018 0
0.008332 0.000095 0
0.008161 0.000167 0
0.007864 0.000232 0
0.007451 0.000292 0
0.006933 0.000346 0
0.006322 0.000393 0
0.005630 0.000434 0
0.004871 0.000466 0
0.004063 0.000487 0
0.003229 0.000494 0
0.002399 0.000479 0
0.001613 0.000434 0
0.000923 0.000352 0
0.000390 0.000226 0
0.000074 0.000074 0
0.000000 0.000000 0
0.000000 0.000000 0
-0.000230 0.000356 0
-0.001097 0.001128 0
-0.002646 0.001945 0
-0.004810 0.002633 0
-0.007448 0.003110 0
-0.010377 0.003345 0
-0.013400 0.003336 0
-0.016323 0.003105 0
-0.018975 0.002687 0
-0.021214 0.002126 0
-0.022937 0.001472 0
-0.024079 0.000769 0
-0.024610 0.000059 0
-0.024531 -0.000626 0
-0.023870 -0.001259 0
-0.022673 -0.001822 0
-0.021001 -0.002299 0
-0.018926 -0.002684 0
-0.016528 -0.002973 0
-0.013888 -0.003165 0
-0.011086 -0.003264 0
-0.008203 -0.003277 0
-0.005312 -0.003210 0
-0.002482 -0.003072 0
0.000229 -0.002873 0
0.002766 -0.002626 0
0.005087 -0.002341 0
0.007159 -0.002030 0
0.008960 -0.001701 0
0.010473 -0.001365 0
0.011692 -0.001029 0
0.012617 -0.000699 0
0.013252 -0.000381 0
0.013608 -0.000079 0
0.013697 0.000205 0
0.013536 0.000468 0
0.013143 0.000710 0
0.012536 0.000931 0
0.011737 0.001129 0
0.010764 0.001303 0
0.009643 0.001451 0
0.008399 0.001567 0
0.007065 0.001642 0
0.005680 0.001665 0
0.004295 0.001616 0
0.002975 0.001476 0
0.001797 0.001223 0
0.000852 0.000849 0
0.000228 0.000390 0
0.000000 -0.000000 0
0.000000 0.000000 0
-0.000476 0.001108 0
-0.001880 0.002665 0
-0.004165 0.004226 0
-0.007215 0.005533 0
-0.010849 0.006447 0
-0.014846 0.006903 0
-0.018964 0.006893 0
-0.022963 0.006450 0
-0.026627 0.005638 0
-0.029777 0.004541 0
-0.032275 0.003248 0
-0.034032 0.001849 0
-0.035001 0.000422 0
-0.035175 -0.000966 0
-0.034580 -0.002264 0
-0.033267 -0.003431 0
-0.031307 -0.004438 0
-0.028785 -0.005266 0
-0.025797 -0.005905 0
-0.022446 -0.006354 0
-0.018833 -0.006615 0
-0.015063 -0.006698 0
-0.011232 -0.006618 0
-0.007433 -0.006390 0
-0.003747 -0.006033 0
-0.000248 -0.005568 0
0.003002 -0.005018 0
0.005950 -0.004405 0
0.008560 -0.003751 0
0.010806 -0.003074 0
0.012671 -0.002390 0
0.014150 -0.001714 0
0.015246 -0.001056 0
0.015966 -0.000427 0
0.016325 0.000167 0
0.016341 0.000721 0
0.016039 0.001232 0
0.015441 0.001698 0
0.014575 0.002118 0
0.013470 0.002487 0
0.012156 0.002799 0
0.010669 0.003044 0
0.009052 0.003207 0
0.007354 0.003263 0
0.005638 0.003184 0
0.003982 0.002932 0
0.002476 0.002475 0
0.001227 0.001795 0
0.000356 0.000925 0
0.000000 -0.000000 0
0.000000 0.000000 0
-0.000689 0.002238 0
-0.002582 0.004817 0
-0.005535 0.007278 0
-0.009375 0.009316 0
-0.013885 0.010741 0
-0.018812 0.011459 0
-0.023883 0.011453 0
-0.028832 0.010769 0
-0.033413 0.009501 0
-0.037419 0.007774 0
-0.040690 0.005726 0
-0.043115 0.003495 0
-0.044634 0.001202 0
-0.045227 -0.001046 0
-0.044916 -0.003167 0
-0.043746 -0.005095 0
-0.041790 -0.006782 0
-0.039136 -0.008194 0
-0.035888 -0.009312 0
-0.032157 -0.010129 0
-0.028057 -0.010647 0
-0.023706 -0.010878 0
-0.019217 -0.010840 0
-0.014699 -0.010557 0
-0.010253 -0.010058 0
-0.005970 -0.009374 0
-0.001926 -0.008539 0
0.001809 -0.007588 0
0.005181 -0.006557 0
0.008150 -0.005476 0
0.010689 -0.004374 0
0.012783 -0.003274 0
0.014429 -0.002197 0
0.015630 -0.001158 0
0.016399 -0.000171 0
0.016754 0.000754 0
0.016718 0.001610 0
0.016319 0.002394 0
0.015588 0.003100 0
0.014558 0.003723 0
0.013267 0.004252 0
0.011754 0.004671 0
0.010068 0.004958 0
0.008266 0.005078 0
0.006413 0.004988 0
0.004594 0.004638 0
0.002907 0.003977 0
0.001472 0.002969 0
0.000439 0.001617 0
0.000000 -0.000000 0
0.000000 0.000000 0
-0.000861 0.003691 0
-0.003171 0.007510 0
-0.006708 0.011017 0
-0.011247 0.013882 0
-0.016534 0.015884 0
-0.022290 0.016902 0
-0.028222 0.016914 0
-0.034042 0.015980 0
-0.039486 0.014225 0
-0.044328 0.011817 0
-0.048392 0.008944 0
-0.051551 0.005793 0
-0.053729 0.002535 0
-0.054895 -0.000684 0
-0.055060 -0.003746 0
-0.054262 -0.006557 0
-0.052566 -0.009047 0
-0.050059 -0.011167 0
-0.046840 -0.012885 0
-0.043021 -0.014185 0
-0.038721 -0.015066 0
-0.034063 -0.015539 0
-0.029170 -0.015624 0
-0.024161 -0.015353 0
-0.019151 -0.014763 0
-0.014243 -0.013895 0
-0.009533 -0.012796 0
-0.005100 -0.011513 0
-0.001014 -0.010093 0
0.002669 -0.008582 0
0.005909 -0.007024 0
0.008676 -0.005454 0
0.010959 -0.003903 0
0.012753 -0.002398 0
0.014066 -0.000957 0
0.014911 0.000402 0
0.015310 0.001667 0
0.015289 0.002828 0
0.014882 0.003878 0
0.014124 0.004808 0
0.013054 0.005603 0
0.011715 0.006242 0
0.010158 0.006695 0
0.008440 0.006918 0
0.006629 0.006855 0
0.004809 0.006439 0
0.003083 0.005597 0
0.001583 0.004263 0
0.000478 0.002397 0
0.000000 0.000000 0
0.000000 0.000000 0
-0.000994 0.005409 0
-0.003648 0.010663 0
-0.007683 0.015353 0
-0.012830 0.019141 0
-0.018806 0.021785 0
-0.025309 0.023148 0
-0.032029 0.023206 0
-0.038664 0.022033 0
-0.044939 0.019787 0
-0.050615 0.016680 0
-0.055503 0.012949 0
-0.059462 0.008831 0
-0.062404 0.004547 0
-0.064284 0.000285 0
-0.065098 -0.003801 0
-0.064875 -0.007589 0
-0.063668 -0.010985 0
-0.061553 -0.013920 0
-0.058621 -0.016350 0
-0.054978 -0.018248 0
-0.050739 -0.019605 0
-0.046025 -0.020429 0
-0.040961 -0.020741 0
-0.035673 -0.020576 0
-0.030283 -0.019975 0
-0.024905 -0.018992 0
-0.019648 -0.017683 0
-0.014604 -0.016107 0
-0.009859 -0.014326 0
-0.005480 -0.012399 0
-0.001525 -0.010381 0
0.001966 -0.008324 0
0.004965 -0.006273 0
0.007457 -0.004265 0
0.009440 -0.002329 0
0.010920 -0.000490 0
0.011915 0.001232 0
0.012445 0.002822 0
0.012542 0.004266 0
0.012240 0.005551 0
0.011579 0.006660 0
0.010603 0.007567 0
0.009359 0.008233 0
0.007904 0.008607 0
0.006304 0.008619 0
0.004640 0.008184 0
0.003017 0.007203 0
0.001569 0.005574 0
0.000480 0.003200 0
0.000000 0.000000 0
0.000000 0.000000 0
-0.001097 0.007338 0
-0.004027 0.014198 0
-0.008476 0.020199 0
-0.014144 0.025006 0
-0.020724 0.028363 0
-0.027896 0.030126 0
-0.035339 0.030270 0
-0.042742 0.028890 0
-0.049822 0.026176 0
-0.056331 0.022380 0
-0.062072 0.017791 0
-0.066893 0.012694 0
-0.070692 0.007357 0
-0.073411 0.002010 0
-0.075030 -0.003155 0
-0.075562 -0.007987 0
-0.075048 -0.012369 0
-0.073546 -0.016214 0
-0.071135 -0.019460 0
-0.067907 -0.022068 0
-0.063968 -0.024020 0
-0.059431 -0.025316 0
-0.054417 -0.025975 0
-0.049053 -0.026031 0
-0.043462 -0.025530 0
-0.037767 -0.024530 0
-0.032085 -0.023097 0
-0.026522 -0.021301 0
-0.021176 -0.019217 0
-0.016131 -0.016916 0
-0.011457 -0.014470 0
-0.007209 -0.011944 0
-0.003431 -0.009395 0
-0.000151 -0.006872 0
0.002616 -0.004420 0
0.004868 -0.002073 0
0.006610 0.000142 0
0.007855 0.002202 0
0.008628 0.004083 0
0.008961 0.005770 0
0.008890 0.007240 0
0.008455 0.008463 0
0.007702 0.009395 0
0.006683 0.009974 0
0.005458 0.010119 0
0.004104 0.009726 0
0.002721 0.008668 0
0.001440 0.006800 0
0.000448 0.003966 0
0.000000 0.000000 0
0.000000 -0.000000 0
-0.001174 0.009434 0
-0.004321 0.018042 0
-0.009107 0.025471 0
-0.015212 0.031390 0
-0.022312 0.035537 0
-0.030077 0.037764 0
-0.038178 0.038052 0
-0.046299 0.036516 0
-0.054153 0.033376 0
-0.061490 0.028930 0
-0.068103 0.023511 0
-0.073833 0.017452 0
-0.078567 0.011065 0
-0.082231 0.004622 0
-0.084787 -0.001650 0
-0.086234 -0.007570 0
-0.086591 -0.013001 0
-0.085899 -0.017833 0
-0.084219 -0.021989 0
-0.081625 -0.025415 0
-0.078207 -0.028082 0
-0.074067 -0.029979 0
-0.069315 -0.031119 0
-0.064071 -0.031531 0
-0.058459 -0.031261 0
-0.052603 -0.030370 0
-0.046627 -0.028928 0
-0.040646 -0.027016 0
-0.034771 -0.024717 0
-0.029100 -0.022118 0
-0.023717 -0.019302 0
-0.018696 -0.016350 0
-0.014094 -0.013332 0
-0.009955 -0.010313 0
-0.006307 -0.007348 0
-0.003168 -0.004483 0
-0.000543 -0.001755 0
0.001572 0.000803 0
0.003189 0.003160 0
0.004328 0.005289 0
0.005021 0.007166 0
0.005303 0.008755 0
0.005214 0.010006 0
0.004798 0.010852 0
0.004110 0.011198 0
0.003216 0.010921 0
0.002206 0.009867 0
0.001204 0.007846 0
0.000387 0.004641 0
0.000000 0.000000 0
0.000000 -0.000000 0
-0.001230 0.011658 0
-0.004542 0.022131 0
-0.009595 0.031091 0
-0.016056 0.038211 0
-0.023594 0.043228 0
-0.031873 0.045991 0
-0.040563 0.046492 0
-0.049346 0.044866 0
-0.057935 0.041366 0
-0.066079 0.036330 0
-0.073568 0.030135 0
-0.080237 0.023159 0
-0.085961 0.015754 0
-0.090652 0.008230 0
-0.094256 0.000848 0
-0.096748 -0.006184 0
-0.098128 -0.012704 0
-0.098419 -0.018586 0
-0.097657 -0.023734 0
-0.095895 -0.028080 0
-0.093204 -0.031578 0
-0.089667 -0.034209 0
-0.085381 -0.035971 0
-0.080453 -0.036887 0
-0.075001 -0.036998 0
-0.069148 -0.036363 0
-0.063018 -0.035054 0
-0.056735 -0.033157 0
-0.050419 -0.030763 0
-0.044180 -0.027970 0
-0.038119 -0.024874 0
-0.032325 -0.021567 0
-0.026872 -0.018136 0
-0.021821 -0.014660 0
-0.017217 -0.011207 0
-0.013093 -0.007837 0
-0.009468 -0.004597 0
-0.006349 -0.001530 0
-0.003738 0.001328 0
-0.001628 0.003938 0
-0.000002 0.006265 0
0.001167 0.008270 0
0.001911 0.009899 0
0.002265 0.011078 0
0.002272 0.011701 0
0.001986 0.011629 0
0.001481 0.010679 0
0.000866 0.008620 0
0.000296 0.005171 0
0.000000 0.000000 0
0.000000 -0.000000 0
-0.001268 0.013976 0
-0.004700 0.026407 0
-0.009954 0.036986 0
-0.016695 0.045390 0
-0.024590 0.051354 0
-0.033303 0.054732 0
-0.042506 0.055524 0
-0.051886 0.053888 0
-0.061159 0.050109 0
-0.070075 0.044563 0
-0.078424 0.037669 0
-0.086036 0.029845 0
-0.092779 0.021480 0
-0.098552 0.012917 0
-0.103283 0.004446 0
-0.106923 -0.003698 0
-0.109453 -0.011330 0
-0.110870 -0.018305 0
-0.111189 -0.024512 0
-0.110437 -0.029867 0
-0.108661 -0.034310 0
-0.105922 -0.037803 0
-0.102297 -0.040333 0
-0.097878 -0.041911 0
-0.092771 -0.042566 0
-0.087091 -0.042353 0
-0.080961 -0.041340 0
-0.074507 -0.039615 0
-0.067856 -0.037272 0
-0.061129 -0.034418 0
-0.054442 -0.031158 0
-0.047898 -0.027597 0
-0.041590 -0.023836 0
-0.035597 -0.019968 0
-0.029981 -0.016076 0
-0.024794 -0.012233 0
-0.020070 -0.008499 0
-0.015835 -0.004927 0
-0.012100 -0.001561 0
-0.008872 0.001554 0
-0.006153 0.004371 0
-0.003932 0.006841 0
-0.002190 0.008908 0
-0.000904 0.010491 0
-0.000047 0.011477 0
0.000420 0.011712 0
0.000551 0.010987 0
0.000427 0.009031 0
0.000178 0.005507 0
0.000000 -0.000000 0
0.000000 -0.000000 0
-0.001291 0.016358 0
-0.004802 0.030818 0
-0.010198 0.043087 0
-0.017147 0.052848 0
-0.025319 0.059836 0
-0.034384 0.063907 0
-0.044020 0.065075 0
-0.053923 0.063518 0
-0.063813 0.059554 0
-0.073448 0.053595 0
-0.082620 0.046096 0
-0.091156 0.037514 0
-0.098919 0.028270 0
-0.105796 0.018733 0
-0.111700 0.009219 0
-0.116563 -0.000013 0
-0.120337 -0.008756 0
-0.122996 -0.016850 0
-0.124529 -0.024167 0
-0.124939 -0.030607 0
-0.124246 -0.036093 0
-0.122484 -0.040573 0
-0.119707 -0.044015 0
-0.115986 -0.046413 0
-0.111410 -0.047786 0
-0.106080 -0.048173 0
-0.100115 -0.047638 0
-0.093638 -0.046261 0
-0.086778 -0.044141 0
-0.079666 -0.041384 0
-0.072428 -0.038105 0
-0.065183 -0.034418 0
-0.058041 -0.030438 0
-0.051099 -0.026269 0
-0.044440 -0.022010 0
-0.038134 -0.017748 0
-0.032235 -0.013556 0
-0.026787 -0.009500 0
-0.021818 -0.005635 0
-0.017349 -0.002009 0
-0.013395 0.001325 0
-0.009968 0.004308 0
-0.007071 0.006872 0
-0.004698 0.008934 0
-0.002838 0.010376 0
-0.001475 0.011032 0
-0.000583 0.010672 0
-0.000111 0.008992 0
0.000033 0.005598 0
0.000000 -0.000000 0
0.000000 -0.000000 0
-0.001300 0.018778 0
-0.004856 0.035315 0
-0.010339 0.049331 0
-0.017428 0.060511 0
-0.025800 0.068591 0
-0.035134 0.073433 0
-0.045119 0.075063 0
-0.055461 0.073681 0
-0.065892 0.069635 0
-0.076176 0.063370 0
-0.086110 0.055377 0
-0.095525 0.046144 0
-0.104278 0.036120 0
-0.112250 0.025699 0
-0.119340 0.015213 0
-0.125462 0.004939 0
-0.130540 -0.004897 0
-0.134525 -0.014113 0
-0.137377 -0.022569 0
-0.139075 -0.030150 0
-0.139609 -0.036765 0
-0.138985 -0.042342 0
-0.137230 -0.046831 0
-0.134388 -0.050208 0
-0.130526 -0.052472 0
-0.125730 -0.053647 0
-0.120104 -0.053783 0
-0.113764 -0.052952 0
-0.106840 -0.051244 0
-0.099466 -0.048768 0
-0.091776 -0.045640 0
-0.083904 -0.041983 0
-0.075976 -0.037920 0
-0.068106 -0.033569 0
-0.060399 -0.029041 0
-0.052943 -0.024437 0
-0.045816 -0.019846 0
-0.039080 -0.015344 0
-0.032786 -0.010999 0
-0.026971 -0.006869 0
-0.021668 -0.003010 0
-0.016904 0.000518 0
-0.012706 0.003638 0
-0.009096 0.006257 0
-0.006089 0.008255 0
-0.003695 0.009457 0
-0.001918 0.009622 0
-0.000748 0.008416 0
-0.000142 0.005396 0
0.000000 -0.000000 0
0.000000 0.000000 0
-0.001299 0.021214 0
-0.004867 0.039857 0
-0.010389 0.055659 0
-0.017554 0.068308 0
-0.026051 0.077541 0
-0.035572 0.083226 0
-0.045819 0.085402 0
-0.056511 0.084292 0
-0.067394 0.080269 0
-0.078242 0.073813 0
-0.088859 0.065445 0
-0.099082 0.055682 0
-0.108767 0.044995 0
-0.117791 0.033796 0
-0.126043 0.022431 0
-0.133421 0.011187 0
-0.139832 0.000307 0
-0.145191 -0.010013 0
-0.149436 -0.019616 0
-0.152515 -0.028376 0
-0.154392 -0.036184 0
-0.155044 -0.042952 0
-0.154465 -0.048612 0
-0.152672 -0.053117 0
-0.149704 -0.056443 0
-0.145624 -0.058595 0
-0.140518 -0.059604 0
-0.134489 -0.059525 0
-0.127661 -0.058440 0
-0.120168 -0.056448 0
-0.112149 -0.053666 0
-0.103749 -0.050219 0
-0.095107 -0.046236 0
-0.086356 -0.041846 0
-0.077621 -0.037173 0
-0.069013 -0.032330 0
-0.060630 -0.027419 0
-0.052557 -0.022531 0
-0.044867 -0.017744 0
-0.037621 -0.013127 0
-0.030872 -0.008742 0
-0.024666 -0.004655 0
-0.019049 -0.000936 0
-0.014072 0.002318 0
-0.009782 0.004975 0
-0.006227 0.006861 0
-0.003449 0.007726 0
-0.001483 0.007216 0
-0.000344 0.004850 0
0.000000 -0.000000 0
0.000000 0.000000 0
-0.001288 0.023646 0
-0.004842 0.044405 0
-0.010359 0.062018 0
-0.017542 0.076172 0
-0.026093 0.086608 0
-0.035721 0.093201 0
-0.046142 0.096003 0
-0.057092 0.095257 0
-0.068329 0.091365 0
-0.079643 0.084835 0
-0.090847 0.076217 0
-0.101785 0.066051 0
-0.112316 0.054829 0
-0.122318 0.042975 0
-0.131673 0.030843 0
-0.140269 0.018728 0
-0.147995 0.006874 0
-0.154742 -0.004509 0
-0.160415 -0.015245 0
-0.164937 -0.025194 0
-0.168243 -0.034236 0
-0.170280 -0.042269 0
-0.171010 -0.049203 0
-0.170419 -0.054969 0
-0.168513 -0.059520 0
-0.165327 -0.062834 0
-0.160923 -0.064918 0
-0.155387 -0.065808 0
-0.148829 -0.065566 0
-0.141376 -0.064281 0
-0.133171 -0.062059 0
-0.124364 -0.059026 0
-0.115107 -0.055312 0
-0.105550 -0.051054 0
-0.095835 -0.046384 0
-0.086097 -0.041428 0
-0.076457 -0.036302 0
-0.067024 -0.031108 0
-0.057894 -0.025936 0
-0.049153 -0.020865 0
-0.040878 -0.015965 0
-0.033142 -0.011305 0
-0.026015 -0.006956 0
-0.019569 -0.003010 0
-0.013885 0.000410 0
-0.009052 0.003124 0
-0.005164 0.004878 0
-0.002312 0.005311 0
-0.000574 0.003912 0
0.000000 -0.000000 0
0.000000 0.000000 0
-0.001270 0.026056 0
-0.004784 0.048927 0
-0.010258 0.068359 0
-0.017406 0.084042 0
-0.025948 0.095720 0
-0.035606 0.103275 0
-0.046114 0.106773 0
-0.057226 0.106479 0
-0.068717 0.102820 0
-0.080388 0.096331 0
-0.092070 0.087587 0
-0.103611 0.077151 0
-0.114881 0.065528 0
-0.125758 0.053152 0
-0.136123 0.040381 0
-0.145859 0.027509 0
-0.154842 0.014781 0
-0.162948 0.002408 0
-0.170052 -0.009421 0
-0.176042 -0.020548 0
-0.180827 -0.030841 0
-0.184326 -0.040185 0
-0.186470 -0.048473 0
-0.187209 -0.055614 0
-0.186516 -0.061534 0
-0.184393 -0.066185 0
-0.180871 -0.069544 0
-0.176012 -0.071619 0
-0.169905 -0.072451 0
-0.162668 -0.072105 0
-0.154439 -0.070678 0
-0.145368 -0.068283 0
-0.135617 -0.065050 0
-0.125352 -0.061118 0
-0.114732 -0.056625 0
-0.103914 -0.051708 0
-0.093042 -0.046493 0
-0.082252 -0.041095 0
-0.071664 -0.035615 0
-0.061392 -0.030142 0
-0.051540 -0.024753 0
-0.042206 -0.019518 0
-0.033490 -0.014510 0
-0.025496 -0.009813 0
-0.018335 -0.005541 0
-0.012137 -0.001859 0
-0.007048 0.000985 0
-0.003226 0.002625 0
-0.000830 0.002538 0
0.000000 -0.000000 0
0.000000 0.000000 0
-0.001245 0.028430 0
-0.004701 0.053393 0
-0.010098 0.074640 0
-0.017166 0.091862 0
-0.025638 0.104808 0
-0.035254 0.113367 0
-0.045766 0.117623 0
-0.056946 0.117859 0
-0.068585 0.114527 0
-0.080502 0.108187 0
-0.092539 0.099439 0
-0.104560 0.088863 0
-0.116440 0.076976 0
-0.128065 0.064217 0
-0.139320 0.050944 0
-0.150084 0.037446 0
-0.160229 0.023963 0
-0.169619 0.010701 0
-0.178111 -0.002151 0
-0.185557 -0.014419 0
-0.191834 -0.025953 0
-0.196836 -0.036626 0
-0.200465 -0.046320 0
-0.202635 -0.054923 0
-0.203284 -0.062335 0
-0.202376 -0.068479 0
-0.199906 -0.073300 0
-0.195906 -0.076774 0
-0.190439 -0.078909 0
-0.183603 -0.079747 0
-0.175525 -0.079360 0
-0.166353 -0.077847 0
-0.156253 -0.075328 0
-0.145402 -0.071939 0
-0.133976 -0.067822 0
-0.122153 -0.063118 0
-0.110103 -0.057964 0
-0.097985 -0.052486 0
-0.085950 -0.046795 0
-0.074138 -0.040989 0
-0.062682 -0.035151 0
-0.051711 -0.029354 0
-0.041355 -0.023667 0
-0.031750 -0.018166 0
-0.023048 -0.012949 0
-0.015421 -0.008163 0
-0.009067 -0.004032 0
-0.004213 -0.000908 0
-0.001108 0.000687 0
0.000000 -0.000000 0
0.000000 0.000000 0
-0.001215 0.030757 0
-0.004597 0.057780 0
-0.009889 0.080823 0
-0.016836 0.099582 0
-0.025186 0.113809 0
-0.034695 0.123403 0
-0.045132 0.128465 0
-0.056287 0.129297 0
-0.067970 0.126376 0
-0.080017 0.120285 0
-0.092285 0.111645 0
-0.104649 0.101052 0
-0.116999 0.089034 0
-0.129226 0.076032 0
-0.141224 0.062400 0
-0.152874 0.048418 0
-0.164050 0.034316 0
-0.174609 0.020289 0
-0.184395 0.006516 0
-0.193243 -0.006825 0
-0.200989 -0.019562 0
-0.207498 -0.031554 0
-0.212644 -0.042675 0
-0.216312 -0.052795 0
-0.218401 -0.061794 0
-0.218837 -0.069563 0
-0.217575 -0.076014 0
-0.214609 -0.081087 0
-0.209969 -0.084753 0
-0.203727 -0.087019 0
-0.195990 -0.087928 0
-0.186897 -0.087554 0
-0.176613 -0.086002 0
-0.165321 -0.083395 0
-0.153214 -0.079873 0
-0.140488 -0.075581 0
-0.127337 -0.070661 0
-0.113950 -0.065247 0
-0.100504 -0.059462 0
-0.087171 -0.053410 0
-0.074114 -0.047180 0
-0.061494 -0.040845 0
-0.049474 -0.034471 0
-0.038226 -0.028119 0
-0.027943 -0.021870 0
-0.018841 -0.015841 0
-0.011178 -0.010223 0
-0.005251 -0.005334 0
-0.001403 -0.001674 0
0.000000 -0.000000 0
0.000000 -0.000000 0
-0.001181 0.033027 0
-0.004476 0.062068 0
-0.009642 0.086879 0
-0.016434 0.107159 0
-0.024616 0.122667 0
-0.033959 0.133313 0
-0.044248 0.139215 0
-0.055291 0.140697 0
-0.066917 0.138257 0
-0.078978 0.132502 0
-0.091348 0.124072 0
-0.103916 0.113577 0
-0.116583 0.101553 0
-0.129254 0.088442 0
-0.141829 0.074592 0
-0.154200 0.060273 0
-0.166244 0.045697 0
-0.177818 0.031046 0
-0.188764 0.016483 0
-0.198907 0.002175 0
-0.208059 -0.011698 0
-0.216036 -0.024971 0