# vtk DataFile Version 2.0
generated by CFD-lab course output (written by Tobias Neckel) 
ASCII

DATASET STRUCTURED_GRID
DIMENSIONS  51 51 1 
POINTS 2601 float

0.000000 0.000000 0
0.020000 0.000000 0
0.040000 0.000000 0
0.060000 0.000000 0
0.080000 0.000000 0
0.100000 0.000000 0
0.120000 0.000000 0
0.140000 0.000000 0
0.160000 0.000000 0
0.180000 0.000000 0
0.200000 0.000000 0
0.220000 0.000000 0
0.240000 0.000000 0
0.260000 0.000000 0
0.280000 0.000000 0
0.300000 0.000000 0
0.320000 0.000000 0
0.340000 0.000000 0
0.360000 0.000000 0
0.380000 0.000000 0
0.400000 0.000000 0
0.420000 0.000000 0
0.440000 0.000000 0
0.460000 0.000000 0
0.480000 0.000000 0
0.500000 0.000000 0
0.520000 0.000000 0
0.540000 0.000000 0
0.560000 0.000000 0
0.580000 0.000000 0
0.600000 0.000000 0
0.620000 0.000000 0
0.640000 0.000000 0
0.660000 0.000000 0
0.680000 0.000000 0
0.700000 0.000000 0
0.720000 0.000000 0
0.740000 0.000000 0
0.760000 0.000000 0
0.780000 0.000000 0
0.800000 0.000000 0
0.820000 0.000000 0
0.840000 0.000000 0
0.860000 0.000000 0
0.880000 0.000000 0
0.900000 0.000000 0
0.920000 0.000000 0
0.940000 0.000000 0
0.960000 0.000000 0
0.980000 0.000000 0
1.000000 0.000000 0
0.000000 0.020000 0
0.020000 0.020000 0
0.040000 0.020000 0
0.060000 0.020000 0
0.080000 0.020000 0
0.100000 0.020000 0
0.120000 0.020000 0
0.140000 0.020000 0
0.160000 0.020000 0
0.180000 0.020000 0
0.200000 0.020000 0
0.220000 0.020000 0
0.240000 0.020000 0
0.260000 0.020000 0
0.280000 0.020000 0
0.300000 0.020000 0
0.320000 0.020000 0
0.340000 0.020000 0
0.360000 0.020000 0
0.380000 0.020000 0
0.400000 0.020000 0
0.420000 0.020000 0
0.440000 0.020000 0
0.460000 0.020000 0
0.480000 0.020000 0
0.500000 0.020000 0
0.520000 0.020000 0
0.540000 0.020000 0
0.560000 0.020000 0
0.580000 0.020000 0
0.600000 0.020000 0
0.620000 0.020000 0
0.640000 0.020000 0
0.660000 0.020000 0
0.680000 0.020000 0
0.700000 0.020000 0
0.720000 0.020000 0
0.740000 0.020000 0
0.760000 0.020000 0
0.780000 0.020000 0
0.800000 0.020000 0
0.820000 0.020000 0
0.840000 0.020000 0
0.860000 0.020000 0
0.880000 0.020000 0
0.900000 0.020000 0
0.920000 0.020000 0
0.940000 0.020000 0
0.960000 0.020000 0
0.980000 0.020000 0
1.000000 0.020000 0
0.000000 0.040000 0
0.020000 0.040000 0
0.040000 0.040000 0
0.060000 0.040000 0
0.080000 0.040000 0
0.100000 0.040000 0
0.120000 0.040000 0
0.140000 0.040000 0
0.160000 0.040000 0
0.180000 0.040000 0
0.200000 0.040000 0
0.220000 0.040000 0
0.240000 0.040000 0
0.260000 0.040000 0
0.280000 0.040000 0
0.300000 0.040000 0
0.320000 0.040000 0
0.340000 0.040000 0
0.360000 0.040000 0
0.380000 0.040000 0
0.400000 0.040000 0
0.420000 0.040000 0
0.440000 0.040000 0
0.460000 0.040000 0
0.480000 0.040000 0
0.500000 0.040000 0
0.520000 0.040000 0
0.540000 0.040000 0
0.560000 0.040000 0
0.580000 0.040000 0
0.600000 0.040000 0
0.620000 0.040000 0
0.640000 0.040000 0
0.660000 0.040000 0
0.680000 0.040000 0
0.700000 0.040000 0
0.720000 0.040000 0
0.740000 0.040000 0
0.760000 0.040000 0
0.780000 0.040000 0
0.800000 0.040000 0
0.820000 0.040000 0
0.840000 0.040000 0
0.860000 0.040000 0
0.880000 0.040000 0
0.900000 0.040000 0
0.920000 0.040000 0
0.940000 0.040000 0
0.960000 0.040000 0
0.980000 0.040000 0
1.000000 0.040000 0
0.000000 0.060000 0
0.020000 0.060000 0
0.040000 0.060000 0
0.060000 0.060000 0
0.080000 0.060000 0
0.100000 0.060000 0
0.120000 0.060000 0
0.140000 0.060000 0
0.160000 0.060000 0
0.180000 0.060000 0
0.200000 0.060000 0
0.220000 0.060000 0
0.240000 0.060000 0
0.260000 0.060000 0
0.280000 0.060000 0
0.300000 0.060000 0
0.320000 0.060000 0
0.340000 0.060000 0
0.360000 0.060000 0
0.380000 0.060000 0
0.400000 0.060000 0
0.420000 0.060000 0
0.440000 0.060000 0
0.460000 0.060000 0
0.480000 0.060000 0
0.500000 0.060000 0
0.520000 0.060000 0
0.540000 0.060000 0
0.560000 0.060000 0
0.580000 0.060000 0
0.600000 0.060000 0
0.620000 0.060000 0
0.640000 0.060000 0
0.660000 0.060000 0
0.680000 0.060000 0
0.700000 0.060000 0
0.720000 0.060000 0
0.740000 0.060000 0
0.760000 0.060000 0
0.780000 0.060000 0
0.800000 0.060000 0
0.820000 0.060000 0
0.840000 0.060000 0
0.860000 0.060000 0
0.880000 0.060000 0
0.900000 0.060000 0
0.920000 0.060000 0
0.940000 0.060000 0
0.960000 0.060000 0
0.980000 0.060000 0
1.000000 0.060000 0
0.000000 0.080000 0
0.020000 0.080000 0
0.040000 0.080000 0
0.060000 0.080000 0
0.080000 0.080000 0
0.100000 0.080000 0
0.120000 0.080000 0
0.140000 0.080000 0
0.160000 0.080000 0
0.180000 0.080000 0
0.200000 0.080000 0
0.220000 0.080000 0
0.240000 0.080000 0
0.260000 0.080000 0
0.280000 0.080000 0
0.300000 0.080000 0
0.320000 0.080000 0
0.340000 0.080000 0
0.360000 0.080000 0
0.380000 0.080000 0
0.400000 0.080000 0
0.420000 0.080000 0
0.440000 0.080000 0
0.460000 0.080000 0
0.480000 0.080000 0
0.500000 0.080000 0
0.520000 0.080000 0
0.540000 0.080000 0
0.560000 0.080000 0
0.580000 0.080000 0
0.600000 0.080000 0
0.620000 0.080000 0
0.640000 0.080000 0
0.660000 0.080000 0
0.680000 0.080000 0
0.700000 0.080000 0
0.720000 0.080000 0
0.740000 0.080000 0
0.760000 0.080000 0
0.780000 0.080000 0
0.800000 0.080000 0
0.820000 0.080000 0
0.840000 0.080000 0
0.860000 0.080000 0
0.880000 0.080000 0
0.900000 0.080000 0
0.920000 0.080000 0
0.940000 0.080000 0
0.960000 0.080000 0
0.980000 0.080000 0
1.000000 0.080000 0
0.000000 0.100000 0
0.020000 0.100000 0
0.040000 0.100000 0
0.060000 0.100000 0
0.080000 0.100000 0
0.100000 0.100000 0
0.120000 0.100000 0
0.140000 0.100000 0
0.160000 0.100000 0
0.180000 0.100000 0
0.200000 0.100000 0
0.220000 0.100000 0
0.240000 0.100000 0
0.260000 0.100000 0
0.280000 0.100000 0
0.300000 0.100000 0
0.320000 0.100000 0
0.340000 0.100000 0
0.360000 0.100000 0
0.380000 0.100000 0
0.400000 0.100000 0
0.420000 0.100000 0
0.440000 0.100000 0
0.460000 0.100000 0
0.480000 0.100000 0
0.500000 0.100000 0
0.520000 0.100000 0
0.540000 0.100000 0
0.560000 0.100000 0
0.580000 0.100000 0
0.600000 0.100000 0
0.620000 0.100000 0
0.640000 0.100000 0
0.660000 0.100000 0
0.680000 0.100000 0
0.700000 0.100000 0
0.720000 0.100000 0
0.740000 0.100000 0
0.760000 0.100000 0
0.780000 0.100000 0
0.800000 0.100000 0
0.820000 0.100000 0
0.840000 0.100000 0
0.860000 0.100000 0
0.880000 0.100000 0
0.900000 0.100000 0
0.920000 0.100000 0
0.940000 0.100000 0
0.960000 0.100000 0
0.980000 0.100000 0
1.000000 0.100000 0
0.000000 0.120000 0
0.020000 0.120000 0
0.040000 0.120000 0
0.060000 0.120000 0
0.080000 0.120000 0
0.100000 0.120000 0
0.120000 0.120000 0
0.140000 0.120000 0
0.160000 0.120000 0
0.180000 0.120000 0
0.200000 0.120000 0
0.220000 0.120000 0
0.240000 0.120000 0
0.260000 0.120000 0
0.280000 0.120000 0
0.300000 0.120000 0
0.320000 0.120000 0
0.340000 0.120000 0
0.360000 0.120000 0
0.380000 0.120000 0
0.400000 0.120000 0
0.420000 0.120000 0
0.440000 0.120000 0
0.460000 0.120000 0
0.480000 0.120000 0
0.500000 0.120000 0
0.520000 0.120000 0
0.540000 0.120000 0
0.560000 0.120000 0
0.580000 0.120000 0
0.600000 0.120000 0
0.620000 0.120000 0
0.640000 0.120000 0
0.660000 0.120000 0
0.680000 0.120000 0
0.700000 0.120000 0
0.720000 0.120000 0
0.740000 0.120000 0
0.760000 0.120000 0
0.780000 0.120000 0
0.800000 0.120000 0
0.820000 0.120000 0
0.840000 0.120000 0
0.860000 0.120000 0
0.880000 0.120000 0
0.900000 0.120000 0
0.920000 0.120000 0
0.940000 0.120000 0
0.960000 0.120000 0
0.980000 0.120000 0
1.000000 0.120000 0
0.000000 0.140000 0
0.020000 0.140000 0
0.040000 0.140000 0
0.060000 0.140000 0
0.080000 0.140000 0
0.100000 0.140000 0
0.120000 0.140000 0
0.140000 0.140000 0
0.160000 0.140000 0
0.180000 0.140000 0
0.200000 0.140000 0
0.220000 0.140000 0
0.240000 0.140000 0
0.260000 0.140000 0
0.280000 0.140000 0
0.300000 0.140000 0
0.320000 0.140000 0
0.340000 0.140000 0
0.360000 0.140000 0
0.380000 0.140000 0
0.400000 0.140000 0
0.420000 0.140000 0
0.440000 0.140000 0
0.460000 0.140000 0
0.480000 0.140000 0
0.500000 0.140000 0
0.520000 0.140000 0
0.540000 0.140000 0
0.560000 0.140000 0
0.580000 0.140000 0
0.600000 0.140000 0
0.620000 0.140000 0
0.640000 0.140000 0
0.660000 0.140000 0
0.680000 0.140000 0
0.700000 0.140000 0
0.720000 0.140000 0
0.740000 0.140000 0
0.760000 0.140000 0
0.780000 0.140000 0
0.800000 0.140000 0
0.820000 0.140000 0
0.840000 0.140000 0
0.860000 0.140000 0
0.880000 0.140000 0
0.900000 0.140000 0
0.920000 0.140000 0
0.940000 0.140000 0
0.960000 0.140000 0
0.980000 0.140000 0
1.000000 0.140000 0
0.000000 0.160000 0
0.020000 0.160000 0
0.040000 0.160000 0
0.060000 0.160000 0
0.080000 0.160000 0
0.100000 0.160000 0
0.120000 0.160000 0
0.140000 0.160000 0
0.160000 0.160000 0
0.180000 0.160000 0
0.200000 0.160000 0
0.220000 0.160000 0
0.240000 0.160000 0
0.260000 0.160000 0
0.280000 0.160000 0
0.300000 0.160000 0
0.320000 0.160000 0
0.340000 0.160000 0
0.360000 0.160000 0
0.380000 0.160000 0
0.400000 0.160000 0
0.420000 0.160000 0
0.440000 0.160000 0
0.460000 0.160000 0
0.480000 0.160000 0
0.500000 0.160000 0
0.520000 0.160000 0
0.540000 0.160000 0
0.560000 0.160000 0
0.580000 0.160000 0
0.600000 0.160000 0
0.620000 0.160000 0
0.640000 0.160000 0
0.660000 0.160000 0
0.680000 0.160000 0
0.700000 0.160000 0
0.720000 0.160000 0
0.740000 0.160000 0
0.760000 0.160000 0
0.780000 0.160000 0
0.800000 0.160000 0
0.820000 0.160000 0
0.840000 0.160000 0
0.860000 0.160000 0
0.880000 0.160000 0
0.900000 0.160000 0
0.920000 0.160000 0
0.940000 0.160000 0
0.960000 0.160000 0
0.980000 0.160000 0
1.000000 0.160000 0
0.000000 0.180000 0
0.020000 0.180000 0
0.040000 0.180000 0
0.060000 0.180000 0
0.080000 0.180000 0
0.100000 0.180000 0
0.120000 0.180000 0
0.140000 0.180000 0
0.160000 0.180000 0
0.180000 0.180000 0
0.200000 0.180000 0
0.220000 0.180000 0
0.240000 0.180000 0
0.260000 0.180000 0
0.280000 0.180000 0
0.300000 0.180000 0
0.320000 0.180000 0
0.340000 0.180000 0
0.360000 0.180000 0
0.380000 0.180000 0
0.400000 0.180000 0
0.420000 0.180000 0
0.440000 0.180000 0
0.460000 0.180000 0
0.480000 0.180000 0
0.500000 0.180000 0
0.520000 0.180000 0
0.540000 0.180000 0
0.560000 0.180000 0
0.580000 0.180000 0
0.600000 0.180000 0
0.620000 0.180000 0
[...]
POINT_DATA 2601 

VECTORS velocity float
0.000000 0.000000 0
0.000000 0.000000 0
0.000000 0.000000 0
-0.000000 0.000000 0
-0.000000 0.000000 0
-0.000000 0.000000 0
-0.000001 0.000000 0
-0.000001 0.000000 0
-0.000001 0.000000 0
-0.000002 0.000000 0
-0.000002 0.000000 0
-0.000002 0.000000 0
-0.000003 0.000000 0
-0.000003 0.000000 0
-0.000003 0.000000 0
-0.000003 0.000000 0
-0.000003 0.000000 0
-0.000003 0.000000 0
-0.000003 0.000000 0
-0.000003 0.000000 0
-0.000002 0.000000 0
-0.000002 0.000000 0
-0.000001 0.000000 0
-0.000000 0.000000 0
0.000000 0.000000 0
0.000001 0.000000 0
0.000002 0.000000 0
0.000002 0.000000 0
0.000003 0.000000 0
0.000004 0.000000 0
0.000004 0.000000 0
0.000005 0.000000 0
0.000005 0.000000 0
0.000005 0.000000 0
0.000005 0.000000 0
0.000006 0.000000 0
0.000006 0.000000 0
0.000006 0.000000 0
0.000005 0.000000 0
0.000005 0.000000 0
0.000005 0.000000 0
0.000004 0.000000 0
0.000004 0.000000 0
0.000003 0.000000 0
0.000002 0.000000 0
0.000002 0.000000 0
0.000001 0.000000 0
0.000001 0.000000 0
0.000000 0.000000 0
-0.000000 0.000000 0
0.000000 0.000000 0
0.000000 -0.000000 0
0.000001 -0.000001 0
-0.000103 0.000071 0
-0.000342 0.000155 0
-0.000708 0.000228 0
-0.001181 0.000285 0
-0.001735 0.000325 0
-0.002345 0.000350 0
-0.002986 0.000361 0
-0.003637 0.000361 0
-0.004280 0.000350 0
-0.004900 0.000333 0
-0.005484 0.000309 0
-0.006023 0.000280 0
-0.006510 0.000248 0
-0.006938 0.000213 0
-0.007304 0.000177 0
-0.007605 0.000140 0
-0.007840 0.000102 0
-0.008008 0.000065 0
-0.008110 0.000028 0
-0.008146 -0.000007 0
-0.008120 -0.000041 0
-0.008033 -0.000074 0
-0.007888 -0.000104 0
-0.007690 -0.000132 0
-0.007443 -0.000157 0
-0.007151 -0.000179 0
-0.006820 -0.000198 0
-0.006455 -0.000214 0
-0.006060 -0.000227 0
-0.005642 -0.000238 0
-0.005205 -0.000245 0
-0.004755 -0.000249 0
-0.004296 -0.000251 0
-0.003833 -0.000251 0
-0.003371 -0.000248 0
-0.002915 -0.000242 0
-0.002469 -0.000234 0
-0.002039 -0.000223 0
-0.001630 -0.000209 0
-0.001249 -0.000191 0
-0.000902 -0.000170 0
-0.000596 -0.000144 0
-0.000340 -0.000113 0
-0.000142 -0.000078 0
-0.000006 -0.000039 0
0.000063 -0.000001 0
0.000072 0.000029 0
0.000037 0.000037 0
0.000000 -0.000000 0
0.000000 -0.000000 0
-0.000070 0.000103 0
-0.000340 0.000342 0
-0.000827 0.000604 0
-0.001518 0.000839 0
-0.002384 0.001027 0
-0.003385 0.001163 0
-0.004480 0.001250 0
-0.005630 0.001292 0
-0.006800 0.001294 0
-0.007959 0.001262 0
-0.009079 0.001204 0
-0.010140 0.001123 0
-0.011123 0.001025 0
-0.012016 0.000914 0
-0.012807 0.000793 0
-0.013490 0.000667 0
-0.014058 0.000535 0
-0.014509 0.000402 0
-0.014841 0.000269 0
-0.015055 0.000138 0
-0.015151 0.000010 0
-0.015133 -0.000114 0
-0.015005 -0.000232 0
-0.014772 -0.000343 0
-0.014440 -0.000446 0
-0.014017 -0.000539 0
-0.013510 -0.000623 0
-0.012929 -0.000697 0
-0.012281 -0.000760 0
-0.011576 -0.000813 0
-0.010824 -0.000855 0
-0.010033 -0.000887 0
-0.009214 -0.000910 0
-0.008374 -0.000922 0
-0.007523 -0.000925 0
-0.006670 -0.000918 0
-0.005823 -0.000902 0
-0.004992 -0.000876 0
-0.004187 -0.000839 0
-0.003418 -0.000790 0
-0.002697 -0.000728 0
-0.002035 -0.000652 0
-0.001446 -0.000561 0
-0.000943 -0.000455 0
-0.000538 -0.000334 0
-0.000241 -0.000205 0
-0.000055 -0.000078 0
0.000028 0.000027 0
0.000029 0.000072 0
0.000000 0.000000 0
0.000000 0.000000 0
-0.000151 0.000338 0
-0.000598 0.000828 0
-0.001329 0.001334 0
-0.002317 0.001785 0
-0.003522 0.002151 0
-0.004897 0.002421 0
-0.006392 0.002595 0
-0.007959 0.002681 0
-0.009551 0.002689 0
-0.011129 0.002629 0
-0.012659 0.002513 0
-0.014112 0.002352 0
-0.015464 0.002156 0
-0.016697 0.001932 0
-0.017797 0.001687 0
-0.018752 0.001428 0
-0.019556 0.001159 0
-0.020202 0.000886 0
-0.020689 0.000611 0
-0.021015 0.000338 0
-0.021182 0.000071 0
-0.021193 -0.000187 0
-0.021053 -0.000435 0
-0.020767 -0.000669 0
-0.020345 -0.000887 0
-0.019795 -0.001087 0
-0.019127 -0.001268 0
-0.018352 -0.001428 0
-0.017483 -0.001567 0
-0.016530 -0.001684 0
-0.015508 -0.001780 0
-0.014428 -0.001855 0
-0.013304 -0.001909 0
-0.012147 -0.001942 0
-0.010969 -0.001955 0
-0.009784 -0.001948 0
-0.008604 -0.001920 0
-0.007442 -0.001870 0
-0.006312 -0.001797 0
-0.005228 -0.001699 0
-0.004205 -0.001574 0
-0.003261 -0.001420 0
-0.002411 -0.001236 0
-0.001673 -0.001021 0
-0.001062 -0.000780 0
-0.000590 -0.000523 0
-0.000263 -0.000270 0
-0.000073 -0.000055 0
0.000000 0.000064 0
0.000000 0.000001 0
0.000000 0.000000 0
-0.000224 0.000700 0
-0.000836 0.001519 0
-0.001792 0.002323 0
-0.003048 0.003032 0
-0.004553 0.003607 0
-0.006251 0.004033 0
-0.008085 0.004311 0
-0.010000 0.004450 0
-0.011945 0.004464 0
-0.013872 0.004370 0
-0.015742 0.004186 0
-0.017523 0.003928 0
-0.019184 0.003610 0
-0.020705 0.003247 0
-0.022069 0.002848 0
-0.023260 0.002425 0
-0.024270 0.001985 0
-0.025091 0.001535 0
-0.025720 0.001082 0
-0.026154 0.000631 0
-0.026395 0.000187 0
-0.026445 -0.000244 0
-0.026309 -0.000658 0
-0.025994 -0.001051 0
-0.025509 -0.001418 0
-0.024865 -0.001758 0
-0.024072 -0.002066 0
-0.023145 -0.002341 0
-0.022097 -0.002582 0
-0.020943 -0.002787 0
-0.019698 -0.002957 0
-0.018378 -0.003092 0
-0.016998 -0.003192 0
-0.015573 -0.003257 0
-0.014119 -0.003287 0
-0.012651 -0.003283 0
-0.011185 -0.003244 0
-0.009738 -0.003168 0
-0.008325 -0.003053 0
-0.006965 -0.002897 0
-0.005677 -0.002695 0
-0.004479 -0.002447 0
-0.003392 -0.002149 0
-0.002435 -0.001803 0
-0.001626 -0.001417 0
-0.000979 -0.001004 0
-0.000502 -0.000595 0
-0.000192 -0.000236 0
-0.000036 -0.000001 0
0.000000 0.000001 0
0.000000 0.000000 0
-0.000284 0.001173 0
-0.001041 0.002396 0
-0.002199 0.003546 0
-0.003695 0.004546 0
-0.005465 0.005354 0
-0.007446 0.005953 0
-0.009574 0.006344 0
-0.011789 0.006540 0
-0.014034 0.006560 0
-0.016258 0.006427 0
-0.018418 0.006164 0
-0.020476 0.005794 0
-0.022401 0.005339 0
-0.024169 0.004816 0
-0.025760 0.004241 0
-0.027157 0.003629 0
-0.028348 0.002990 0
-0.029326 0.002335 0
-0.030085 0.001674 0
-0.030621 0.001013 0
-0.030934 0.000362 0
-0.031027 -0.000274 0
-0.030905 -0.000886 0
-0.030574 -0.001469 0
-0.030045 -0.002016 0
-0.029327 -0.002524 0
-0.028434 -0.002987 0
-0.027382 -0.003403 0
-0.026185 -0.003769 0
-0.024862 -0.004083 0
-0.023428 -0.004345 0
-0.021903 -0.004556 0
-0.020304 -0.004714 0
-0.018649 -0.004821 0
-0.016956 -0.004877 0
-0.015244 -0.004881 0
-0.013530 -0.004833 0
-0.011835 -0.004730 0
-0.010176 -0.004569 0
-0.008574 -0.004348 0
-0.007051 -0.004061 0
-0.005627 -0.003705 0
-0.004325 -0.003280 0
-0.003167 -0.002787 0
-0.002173 -0.002236 0
-0.001360 -0.001647 0
-0.000737 -0.001056 0
-0.000310 -0.000521 0
-0.000070 -0.000128 0
0.000000 0.000002 0
0.000000 0.000001 0
-0.000333 0.001740 0
-0.001214 0.003434 0
-0.002548 0.004977 0
-0.004257 0.006298 0
-0.006264 0.007358 0
-0.008496 0.008142 0
-0.010884 0.008654 0
-0.013361 0.008909 0
-0.015868 0.008933 0
-0.018351 0.008754 0
-0.020761 0.008404 0
-0.023061 0.007911 0
-0.025216 0.007304 0
-0.027200 0.006605 0
-0.028990 0.005835 0
-0.030569 0.005014 0
-0.031923 0.004154 0
-0.033042 0.003271 0
-0.033920 0.002376 0
-0.034552 0.001480 0
-0.034936 0.000594 0
-0.035074 -0.000273 0
-0.034970 -0.001111 0
-0.034631 -0.001911 0
-0.034067 -0.002666 0
-0.033290 -0.003368 0
-0.032313 -0.004011 0
-0.031152 -0.004590 0
-0.029827 -0.005102 0
-0.028354 -0.005545 0
-0.026755 -0.005916 0
-0.025048 -0.006216 0
-0.023256 -0.006446 0
-0.021398 -0.006604 0
-0.019494 -0.006692 0
-0.017566 -0.006709 0
-0.015634 -0.006653 0
-0.013719 -0.006523 0
-0.011843 -0.006314 0
-0.010027 -0.006022 0
-0.008295 -0.005642 0
-0.006670 -0.005172 0
-0.005176 -0.004608 0
-0.003836 -0.003955 0
-0.002673 -0.003224 0
-0.001706 -0.002440 0
-0.000950 -0.001645 0
-0.000415 -0.000903 0
-0.000100 -0.000311 0
0.000000 0.000003 0
0.000000 0.000001 0
-0.000373 0.002386 0
-0.001359 0.004611 0
-0.002848 0.006589 0
-0.004744 0.008261 0
-0.006962 0.009592 0
-0.009420 0.010573 0
-0.012041 0.011210 0
-0.014754 0.011525 0
-0.017495 0.011549 0
-0.020208 0.011320 0
-0.022842 0.010874 0
-0.025356 0.010249 0
-0.027716 0.009477 0
-0.029892 0.008589 0
-0.031861 0.007610 0
-0.033605 0.006562 0
-0.035108 0.005464 0
-0.036359 0.004332 0
-0.037348 0.003183 0
-0.038071 0.002029 0
-0.038525 0.000884 0
-0.038709 -0.000239 0
-0.038627 -0.001328 0
-0.038286 -0.002372 0
-0.037694 -0.003358 0
-0.036865 -0.004279 0
-0.035813 -0.005125 0
-0.034555 -0.005889 0
-0.033112 -0.006567 0
-0.031503 -0.007155 0
-0.029751 -0.007651 0
-0.027879 -0.008054 0
-0.025909 -0.008365 0
-0.023865 -0.008583 0
-0.021769 -0.008709 0
-0.019644 -0.008741 0
-0.017514 -0.008680 0
-0.015401 -0.008521 0
-0.013329 -0.008261 0
-0.011320 -0.007895 0
-0.009400 -0.007418 0
-0.007594 -0.006824 0
-0.005927 -0.006114 0
-0.004424 -0.005290 0
-0.003110 -0.004366 0
-0.002006 -0.003369 0
-0.001133 -0.002347 0
-0.000503 -0.001371 0
-0.000125 -0.000543 0
0.000000 0.000003 0
0.000000 0.000001 0
-0.000407 0.003099 0
-0.001482 0.005908 0
-0.003106 0.008362 0
-0.005171 0.010413 0
-0.007580 0.012034 0
-0.010243 0.013221 0
-0.013076 0.013988 0
-0.016004 0.014363 0
-0.018959 0.014386 0
-0.021880 0.014100 0
-0.024718 0.013552 0
-0.027428 0.012785 0
-0.029975 0.011839 0
-0.032328 0.010750 0
-0.034464 0.009549 0
-0.036362 0.008260 0
-0.038005 0.006908 0
-0.039381 0.005511 0
-0.040479 0.004088 0
-0.041292 0.002656 0
-0.041816 0.001231 0
-0.042049 -0.000171 0
-0.041993 -0.001534 0
-0.041654 -0.002844 0
-0.041040 -0.004087 0
-0.040165 -0.005250 0
-0.039044 -0.006321 0
-0.037695 -0.007291 0
-0.036140 -0.008154 0
-0.034401 -0.008905 0
-0.032503 -0.009540 0
-0.030472 -0.010059 0
-0.028332 -0.010460 0
-0.026110 -0.010744 0
-0.023832 -0.010912 0
-0.021522 -0.010964 0
-0.019205 -0.010896 0
-0.016907 -0.010708 0
-0.014652 -0.010395 0
-0.012466 -0.009950 0
-0.010375 -0.009368 0
-0.008404 -0.008645 0
-0.006580 -0.007778 0
-0.004930 -0.006772 0
-0.003481 -0.005642 0
-0.002258 -0.004417 0
-0.001283 -0.003148 0
-0.000573 -0.001911 0
-0.000144 -0.000814 0
0.000000 0.000004 0
0.000000 0.000002 0
-0.000435 0.003868 0
-0.001590 0.007310 0
-0.003334 0.010278 0
-0.005551 0.012734 0
-0.008134 0.014664 0
-0.010986 0.016068 0
-0.014016 0.016971 0
-0.017144 0.017407 0
-0.020298 0.017426 0
-0.023415 0.017079 0
-0.026443 0.016422 0
-0.029336 0.015505 0
-0.032059 0.014377 0
-0.034580 0.013078 0
-0.036874 0.011643 0
-0.038920 0.010103 0
-0.040701 0.008483 0
-0.042202 0.006806 0
-0.043410 0.005094 0
-0.044316 0.003365 0
-0.044915 0.001640 0
-0.045202 -0.000063 0
-0.045178 -0.001724 0
-0.044847 -0.003324 0
-0.044217 -0.004847 0
-0.043301 -0.006275 0
-0.042114 -0.007595 0
-0.040677 -0.008793 0
-0.039012 -0.009861 0
-0.037144 -0.010792 0
-0.035101 -0.011580 0
-0.032911 -0.012225 0
-0.030602 -0.012726 0
-0.028204 -0.013083 0
-0.025744 -0.013297 0
-0.023252 -0.013368 0
-0.020753 -0.013294 0
-0.018275 -0.013074 0
-0.015846 -0.012702 0
-0.013491 -0.012173 0
-0.011237 -0.011480 0
-0.009112 -0.010619 0
-0.007144 -0.009587 0
-0.005362 -0.008388 0
-0.003793 -0.007038 0
-0.002465 -0.005568 0
-0.001403 -0.004032 0
-0.000628 -0.002510 0
-0.000157 -0.001116 0
0.000000 0.000005 0
0.000000 0.000002 0
-0.000460 0.004688 0
-0.001686 0.008807 0
-0.003540 0.012323 0
-0.005897 0.015213 0
-0.008643 0.017468 0
-0.011672 0.019102 0
-0.014888 0.020146 0
-0.018205 0.020644 0
-0.021548 0.020657 0
-0.024851 0.020245 0
-0.028060 0.019473 0
-0.031130 0.018401 0
-0.034022 0.017083 0
-0.036707 0.015565 0
-0.039157 0.013889 0
-0.041352 0.012087 0
-0.043272 0.010189 0
-0.044901 0.008220 0
-0.046225 0.006203 0
-0.047232 0.004161 0
-0.047914 0.002116 0
-0.048264 0.000092 0
-0.048281 -0.001889 0
-0.047967 -0.003805 0
-0.047329 -0.005633 0
-0.046378 -0.007352 0
-0.045130 -0.008944 0
-0.043607 -0.010394 0
-0.041832 -0.011687 0
-0.039833 -0.012816 0
-0.037641 -0.013774 0
-0.035287 -0.014558 0
-0.032803 -0.015167 0
-0.030222 -0.015602 0
-0.027576 -0.015865 0
-0.024896 -0.015955 0
-0.022212 -0.015872 0
-0.019553 -0.015615 0
-0.016949 -0.015179 0
-0.014426 -0.014559 0
-0.012015 -0.013747 0
-0.009742 -0.012737 0
-0.007638 -0.011528 0
-0.005732 -0.010124 0
-0.004054 -0.008539 0
-0.002634 -0.006807 0
-0.001497 -0.004985 0
-0.000669 -0.003156 0
-0.000167 -0.001442 0
0.000000 0.000006 0
0.000000 0.000003 0
-0.000484 0.005554 0
-0.001775 0.010390 0
-0.003731 0.014489 0
-0.006221 0.017837 0
-0.009121 0.020438 0
-0.012320 0.022313 0
-0.015714 0.023504 0
-0.019214 0.024067 0
-0.022739 0.024071 0
-0.026223 0.023591 0
-0.029609 0.022700 0
-0.032851 0.021467 0
-0.035911 0.019954 0
-0.038759 0.018212 0
-0.041367 0.016288 0
-0.043714 0.014217 0
-0.045780 0.012032 0
-0.047546 0.009759 0
-0.048996 0.007425 0
-0.050117 0.005054 0
-0.050895 0.002672 0
-0.051323 0.000305 0
-0.051395 -0.002021 0
-0.051111 -0.004277 0
-0.050475 -0.006436 0
-0.049498 -0.008474 0
-0.048195 -0.010366 0
-0.046588 -0.012092 0
-0.044702 -0.013635 0
-0.042568 -0.014982 0
-0.040220 -0.016127 0
-0.037692 -0.017063 0
-0.035022 -0.017791 0
-0.032247 -0.018310 0
-0.029402 -0.018623 0
-0.026523 -0.018732 0
-0.023642 -0.018637 0
-0.020793 -0.018337 0
-0.018006 -0.017829 0
-0.015312 -0.017107 0
-0.012740 -0.016165 0
-0.010320 -0.014995 0
-0.008082 -0.013596 0
-0.006058 -0.011971 0
-0.004278 -0.010136 0
-0.002774 -0.008125 0
-0.001572 -0.005996 0
-0.000700 -0.003840 0
-0.000173 -0.001785 0
0.000000 0.000007 0
0.000000 0.000003 0
-0.000506 0.006463 0
-0.001860 0.012055 0
-0.003914 0.016769 0
-0.006531 0.020602 0
-0.009582 0.023567 0
-0.012945 0.025695 0
-0.016515 0.027040 0
-0.020193 0.027669 0
-0.023898 0.027665 0
-0.027560 0.027114 0
-0.031121 0.026101 0
-0.034535 0.024703 0
-0.037764 0.022990 0
-0.040777 0.021021 0
-0.043549 0.018844 0
-0.046055 0.016500 0
-0.048276 0.014020 0
-0.050192 0.011436 0
-0.051784 0.008773 0
-0.053035 0.006060 0
-0.053929 0.003323 0
-0.054454 0.000592 0
-0.054600 -0.002101 0
-0.054364 -0.004725 0
-0.053747 -0.007246 0
-0.052756 -0.009632 0
-0.051407 -0.011855 0
-0.049720 -0.013887 0
-0.047724 -0.015707 0
-0.045450 -0.017298 0
-0.042936 -0.018649 0
-0.040222 -0.019755 0
-0.037351 -0.020612 0
-0.034363 -0.021223 0
-0.031300 -0.021589 0
-0.028203 -0.021714 0
-0.025108 -0.021602 0
-0.022052 -0.021251 0
-0.019069 -0.020660 0
-0.016191 -0.019825 0
-0.013450 -0.018739 0
-0.010876 -0.017395 0
-0.008502 -0.015790 0
-0.006359 -0.013927 0
-0.004479 -0.011823 0
-0.002895 -0.009513 0
-0.001634 -0.007058 0
-0.000723 -0.004555 0
-0.000177 -0.002141 0
0.000000 0.000007 0
0.000000 0.000004 0
-0.000527 0.007413 0
-0.001943 0.013799 0
-0.004094 0.019160 0
-0.006837 0.023504 0
-0.010035 0.026852 0
-0.013563 0.029246 0
-0.017305 0.030751 0
-0.021161 0.031450 0
-0.025045 0.031438 0
-0.028884 0.030814 0
-0.032620 0.029675 0
-0.036208 0.028110 0
-0.039608 0.026196 0
-0.042793 0.023997 0
-0.045734 0.021566 0
-0.048411 0.018945 0
-0.050801 0.016168 0
-0.052883 0.013267 0
-0.054635 0.010267 0
-0.056038 0.007199 0
-0.057072 0.004091 0
-0.057719 0.000976 0
-0.057965 -0.002110 0
-0.057802 -0.005130 0
-0.057225 -0.008044 0
-0.056241 -0.010814 0
-0.054859 -0.013402 0
-0.053102 -0.015775 0
-0.050997 -0.017905 0
-0.048580 -0.019770 0
-0.045891 -0.021354 0
-0.042977 -0.022648 0
-0.039884 -0.023650 0
-0.036661 -0.024360 0
-0.033357 -0.024783 0
-0.030015 -0.024924 0
-0.026681 -0.024787 0
-0.023394 -0.024376 0
-0.020192 -0.023690 0
-0.017111 -0.022726 0
-0.014184 -0.021479 0
-0.011444 -0.019943 0
-0.008924 -0.018113 0
-0.006656 -0.015994 0
-0.004673 -0.013600 0
-0.003008 -0.010970 0
-0.001689 -0.008167 0
-0.000742 -0.005297 0
-0.000179 -0.002508 0
0.000000 0.000008 0
0.000000 0.000004 0
-0.000549 0.008405 0
-0.002026 0.015622 0
-0.004275 0.021663 0
-0.007144 0.026543 0
-0.010491 0.030293 0
-0.014183 0.032965 0
-0.018100 0.034638 0
-0.022134 0.035409 0
-0.026197 0.035388 0
-0.030214 0.034690 0
-0.034128 0.033424 0
-0.037890 0.031691 0
-0.041467 0.029575 0
-0.044828 0.027147 0
-0.047949 0.024463 0
-0.050807 0.021566 0
-0.053381 0.018492 0
-0.055648 0.015270 0
-0.057584 0.011929 0
-0.059166 0.008496 0
-0.060368 0.005003 0
-0.061169 0.001485 0
-0.061548 -0.002019 0
-0.061489 -0.005465 0
-0.060984 -0.008807 0
-0.060031 -0.011999 0
-0.058640 -0.014993 0
-0.056828 -0.017749 0
-0.054623 -0.020229 0
-0.052063 -0.022404 0
-0.049192 -0.024252 0
-0.046062 -0.025762 0
-0.042727 -0.026928 0
-0.039242 -0.027750 0
-0.035665 -0.028235 0
-0.032048 -0.028390 0
-0.028441 -0.028223 0
-0.024890 -0.027739 0
-0.021440 -0.026943 0
-0.018128 -0.025833 0
-0.014991 -0.024405 0
-0.012064 -0.022655 0
-0.009381 -0.020578 0
-0.006974 -0.018178 0
-0.004878 -0.015472 0
-0.003126 -0.012497 0
-0.001745 -0.009324 0
-0.000760 -0.006065 0
-0.000181 -0.002883 0
0.000000 0.000009 0
0.000000 0.000005 0
-0.000571 0.009439 0
-0.002111 0.017525 0
-0.004459 0.024278 0
-0.007458 0.029721 0
-0.010957 0.033891 0
-0.014816 0.036854 0
-0.018909 0.038702 0
-0.023123 0.039547 0
-0.027367 0.039518 0
-0.031564 0.038744 0
-0.035656 0.037351 0
-0.039598 0.035449 0
-0.043354 0.033133 0
-0.046899 0.030479 0
-0.050208 0.027545 0
-0.053261 0.024377 0
-0.056035 0.021009 0
-0.058508 0.017470 0
-0.060653 0.013785 0
-0.062443 0.009983 0
-0.063848 0.006094 0
-0.064840 0.002155 0
-0.065391 -0.001790 0
-0.065478 -0.005694 0
-0.065084 -0.009502 0
-0.064201 -0.013158 0
-0.062832 -0.016605 0
-0.060990 -0.019792 0
-0.058702 -0.022670 0
-0.056006 -0.025201 0
-0.052950 -0.027355 0
-0.049592 -0.029114 0
-0.045993 -0.030469 0
-0.042218 -0.031422 0
-0.038333 -0.031978 0
-0.034401 -0.032148 0
-0.030481 -0.031944 0
-0.026626 -0.031377 0
-0.022887 -0.030452 0
-0.019307 -0.029175 0
-0.015927 -0.027543 0
-0.012783 -0.025553 0
-0.009910 -0.023203 0
-0.007344 -0.020496 0
-0.005117 -0.017449 0
-0.003263 -0.014102 0
-0.001811 -0.010532 0
-0.000782 -0.006861 0
-0.000184 -0.003268 0
0.000000 0.000010 0
0.000000 0.000005 0
-0.000594 0.010516 0
-0.002200 0.019510 0
-0.004650 0.027009 0
-0.007782 0.033041 0
-0.011438 0.037651 0
-0.015469 0.040917 0
-0.019741 0.042945 0
-0.024139 0.043867 0
-0.028565 0.043829 0
-0.032944 0.042979 0
-0.037216 0.041457 0
-0.041338 0.039389 0
-0.045278 0.036876 0
-0.049012 0.034000 0
-0.052518 0.030824 0
-0.055777 0.027393 0
-0.058769 0.023739 0
-0.061469 0.019888 0
-0.063850 0.015864 0
-0.065881 0.011692 0
-0.067528 0.007401 0
-0.068755 0.003028 0
-0.069525 -0.001381 0
-0.069808 -0.005772 0
-0.069576 -0.010084 0
-0.068812 -0.014251 0
-0.067510 -0.018204 0
-0.065676 -0.021879 0
-0.063334 -0.025213 0
-0.060520 -0.028155 0
-0.057285 -0.030666 0
-0.053693 -0.032719 0
-0.049812 -0.034301 0
-0.045718 -0.035409 0
-0.041488 -0.036052 0
-0.037197 -0.036242 0
-0.032916 -0.035997 0
-0.028707 -0.035333 0
-0.024629 -0.034262 0
-0.020733 -0.032793 0
-0.017064 -0.030930 0
-0.013661 -0.028671 0
-0.010563 -0.026017 0
-0.007804 -0.022971 0
-0.005419 -0.019552 0
-0.003441 -0.015802 0
-0.001899 -0.011805 0
-0.000814 -0.007692 0
-0.000188 -0.003665 0
0.000000 0.000011 0
0.000000 0.000006 0
-0.000618 0.011638 0
-0.002292 0.021581 0
-0.004851 0.029861 0
-0.008121 0.036508 0
-0.011939 0.041577 0
-0.016147 0.045157 0
-0.020603 0.047372 0
-0.025187 0.048371 0
-0.029798 0.048323 0
-0.034360 0.047395 0
-0.038813 0.045745 0
-0.043117 0.043511 0
-0.047243 0.040807 0
-0.051169 0.037718 0
-0.054879 0.034310 0
-0.058355 0.030628 0
-0.061579 0.026700 0
-0.064527 0.022551 0
-0.067172 0.018197 0
-0.069478 0.013661 0
-0.071408 0.008967 0
-0.072918 0.004153 0
-0.073963 -0.000737 0
-0.074502 -0.005643 0
-0.074495 -0.010497 0
-0.073912 -0.015224 0
-0.072737 -0.019742 0
-0.070967 -0.023968 0
-0.068616 -0.027826 0
-0.065719 -0.031249 0
-0.062326 -0.034182 0
-0.058504 -0.036587 0
-0.054331 -0.038444 0
-0.049893 -0.039745 0
-0.045282 -0.040498 0
-0.040585 -0.040721 0
-0.035887 -0.040434 0
-0.031265 -0.039662 0
-0.026787 -0.038426 0
-0.022514 -0.036740 0
-0.018497 -0.034615 0
-0.014780 -0.032054 0
-0.011405 -0.029060 0
-0.008407 -0.025639 0
-0.005823 -0.021811 0
-0.003686 -0.017622 0
-0.002026 -0.013160 0
-0.000862 -0.008572 0
-0.000197 -0.004081 0
0.000000 0.000013 0
0.000000 0.000007 0
-0.000643 0.012807 0
-0.002390 0.023743 0
-0.005062 0.032838 0
-0.008479 0.040129 0
-0.012465 0.045676 0
-0.016856 0.049581 0
-0.021501 0.051985 0
-0.026274 0.053062 0
-0.031072 0.053001 0
-0.035816 0.051993 0
-0.040449 0.050215 0
-0.044934 0.047818 0