# vtk DataFile Version 2.0
generated by CFD-lab course output (written by Tobias Neckel) 
ASCII

DATASET STRUCTURED_GRID
DIMENSIONS  51 51 1 
POINTS 2601 float

0.000000 0.000000 0
0.020000 0.000000 0
0.040000 0.000000 0
0.060000 0.000000 0
0.080000 0.000000 0
0.100000 0.000000 0
0.120000 0.000000 0
0.140000 0.000000 0
0.160000 0.000000 0
0.180000 0.000000 0
0.200000 0.000000 0
0.220000 0.000000 0
0.240000 0.000000 0
0.260000 0.000000 0
0.280000 0.000000 0
0.300000 0.000000 0
0.320000 0.000000 0
0.340000 0.000000 0
0.360000 0.000000 0
0.380000 0.000000 0
0.400000 0.000000 0
0.420000 0.000000 0
0.440000 0.000000 0
0.460000 0.000000 0
0.480000 0.000000 0
0.500000 0.000000 0
0.520000 0.000000 0
0.540000 0.000000 0
0.560000 0.000000 0
0.580000 0.000000 0
0.600000 0.000000 0
0.620000 0.000000 0
0.640000 0.000000 0
0.660000 0.000000 0
0.680000 0.000000 0
0.700000 0.000000 0
0.720000 0.000000 0
0.740000 0.000000 0
0.760000 0.000000 0
0.780000 0.000000 0
0.800000 0.000000 0
0.820000 0.000000 0
0.840000 0.000000 0
0.860000 0.000000 0
0.880000 0.000000 0
0.900000 0.000000 0
0.920000 0.000000 0
0.940000 0.000000 0
0.960000 0.000000 0
0.980000 0.000000 0
1.000000 0.000000 0
0.000000 0.020000 0
0.020000 0.020000 0
0.040000 0.020000 0
0.060000 0.020000 0
0.080000 0.020000 0
0.100000 0.020000 0
0.120000 0.020000 0
0.140000 0.020000 0
0.160000 0.020000 0
0.180000 0.020000 0
0.200000 0.020000 0
0.220000 0.020000 0
0.240000 0.020000 0
0.260000 0.020000 0
0.280000 0.020000 0
0.300000 0.020000 0
0.320000 0.020000 0
0.340000 0.020000 0
0.360000 0.020000 0
0.380000 0.020000 0
0.400000 0.020000 0
0.420000 0.020000 0
0.440000 0.020000 0
0.460000 0.020000 0
0.480000 0.020000 0
0.500000 0.020000 0
0.520000 0.020000 0
0.540000 0.020000 0
0.560000 0.020000 0
0.580000 0.020000 0
0.600000 0.020000 0
0.620000 0.020000 0
0.640000 0.020000 0
0.660000 0.020000 0
0.680000 0.020000 0
0.700000 0.020000 0
0.720000 0.020000 0
0.740000 0.020000 0
0.760000 0.020000 0
0.780000 0.020000 0
0.800000 0.020000 0
0.820000 0.020000 0
0.840000 0.020000 0
0.860000 0.020000 0
0.880000 0.020000 0
0.900000 0.020000 0
0.920000 0.020000 0
0.940000 0.020000 0
0.960000 0.020000 0
0.980000 0.020000 0
1.000000 0.020000 0
0.000000 0.040000 0
0.020000 0.040000 0
0.040000 0.040000 0
0.060000 0.040000 0
0.080000 0.040000 0
0.100000 0.040000 0
0.120000 0.040000 0
0.140000 0.040000 0
0.160000 0.040000 0
0.180000 0.040000 0
0.200000 0.040000 0
0.220000 0.040000 0
0.240000 0.040000 0
0.260000 0.040000 0
0.280000 0.040000 0
0.300000 0.040000 0
0.320000 0.040000 0
0.340000 0.040000 0
0.360000 0.040000 0
0.380000 0.040000 0
0.400000 0.040000 0
0.420000 0.040000 0
0.440000 0.040000 0
0.460000 0.040000 0
0.480000 0.040000 0
0.500000 0.040000 0
0.520000 0.040000 0
0.540000 0.040000 0
0.560000 0.040000 0
0.580000 0.040000 0
0.600000 0.040000 0
0.620000 0.040000 0
0.640000 0.040000 0
0.660000 0.040000 0
0.680000 0.040000 0
0.700000 0.040000 0
0.720000 0.040000 0
0.740000 0.040000 0
0.760000 0.040000 0
0.780000 0.040000 0
0.800000 0.040000 0
0.820000 0.040000 0
0.840000 0.040000 0
0.860000 0.040000 0
0.880000 0.040000 0
0.900000 0.040000 0
0.920000 0.040000 0
0.940000 0.040000 0
0.960000 0.040000 0
0.980000 0.040000 0
1.000000 0.040000 0
0.000000 0.060000 0
0.020000 0.060000 0
0.040000 0.060000 0
0.060000 0.060000 0
0.080000 0.060000 0
0.100000 0.060000 0
0.120000 0.060000 0
0.140000 0.060000 0
0.160000 0.060000 0
0.180000 0.060000 0
0.200000 0.060000 0
0.220000 0.060000 0
0.240000 0.060000 0
0.260000 0.060000 0
0.280000 0.060000 0
0.300000 0.060000 0
0.320000 0.060000 0
0.340000 0.060000 0
0.360000 0.060000 0
0.380000 0.060000 0
0.400000 0.060000 0
0.420000 0.060000 0
0.440000 0.060000 0
0.460000 0.060000 0
0.480000 0.060000 0
0.500000 0.060000 0
0.520000 0.060000 0
0.540000 0.060000 0
0.560000 0.060000 0
0.580000 0.060000 0
0.600000 0.060000 0
0.620000 0.060000 0
0.640000 0.060000 0
0.660000 0.060000 0
0.680000 0.060000 0
0.700000 0.060000 0
0.720000 0.060000 0
0.740000 0.060000 0
0.760000 0.060000 0
0.780000 0.060000 0
0.800000 0.060000 0
0.820000 0.060000 0
0.840000 0.060000 0
0.860000 0.060000 0
0.880000 0.060000 0
0.900000 0.060000 0
0.920000 0.060000 0
0.940000 0.060000 0
0.960000 0.060000 0
0.980000 0.060000 0
1.000000 0.060000 0
0.000000 0.080000 0
0.020000 0.080000 0
0.040000 0.080000 0
0.060000 0.080000 0
0.080000 0.080000 0
0.100000 0.080000 0
0.120000 0.080000 0
0.140000 0.080000 0
0.160000 0.080000 0
0.180000 0.080000 0
0.200000 0.080000 0
0.220000 0.080000 0
0.240000 0.080000 0
0.260000 0.080000 0
0.280000 0.080000 0
0.300000 0.080000 0
0.320000 0.080000 0
0.340000 0.080000 0
0.360000 0.080000 0
0.380000 0.080000 0
0.400000 0.080000 0
0.420000 0.080000 0
0.440000 0.080000 0
0.460000 0.080000 0
0.480000 0.080000 0
0.500000 0.080000 0
0.520000 0.080000 0
0.540000 0.080000 0
0.560000 0.080000 0
0.580000 0.080000 0
0.600000 0.080000 0
0.620000 0.080000 0
0.640000 0.080000 0
0.660000 0.080000 0
0.680000 0.080000 0
0.700000 0.080000 0
0.720000 0.080000 0
0.740000 0.080000 0
0.760000 0.080000 0
0.780000 0.080000 0
0.800000 0.080000 0
0.820000 0.080000 0
0.840000 0.080000 0
0.860000 0.080000 0
0.880000 0.080000 0
0.900000 0.080000 0
0.920000 0.080000 0
0.940000 0.080000 0
0.960000 0.080000 0
0.980000 0.080000 0
1.000000 0.080000 0
0.000000 0.100000 0
0.020000 0.100000 0
0.040000 0.100000 0
0.060000 0.100000 0
0.080000 0.100000 0
0.100000 0.100000 0
0.120000 0.100000 0
0.140000 0.100000 0
0.160000 0.100000 0
0.180000 0.100000 0
0.200000 0.100000 0
0.220000 0.100000 0
0.240000 0.100000 0
0.260000 0.100000 0
0.280000 0.100000 0
0.300000 0.100000 0
0.320000 0.100000 0
0.340000 0.100000 0
0.360000 0.100000 0
0.380000 0.100000 0
0.400000 0.100000 0
0.420000 0.100000 0
0.440000 0.100000 0
0.460000 0.100000 0
0.480000 0.100000 0
0.500000 0.100000 0
0.520000 0.100000 0
0.540000 0.100000 0
0.560000 0.100000 0
0.580000 0.100000 0
0.600000 0.100000 0
0.620000 0.100000 0
0.640000 0.100000 0
0.660000 0.100000 0
0.680000 0.100000 0
0.700000 0.100000 0
0.720000 0.100000 0
0.740000 0.100000 0
0.760000 0.100000 0
0.780000 0.100000 0
0.800000 0.100000 0
0.820000 0.100000 0
0.840000 0.100000 0
0.860000 0.100000 0
0.880000 0.100000 0
0.900000 0.100000 0
0.920000 0.100000 0
0.940000 0.100000 0
0.960000 0.100000 0
0.980000 0.100000 0
1.000000 0.100000 0
0.000000 0.120000 0
0.020000 0.120000 0
0.040000 0.120000 0
0.060000 0.120000 0
0.080000 0.120000 0
0.100000 0.120000 0
0.120000 0.120000 0
0.140000 0.120000 0
0.160000 0.120000 0
0.180000 0.120000 0
0.200000 0.120000 0
0.220000 0.120000 0
0.240000 0.120000 0
0.260000 0.120000 0
0.280000 0.120000 0
0.300000 0.120000 0
0.320000 0.120000 0
0.340000 0.120000 0
0.360000 0.120000 0
0.380000 0.120000 0
0.400000 0.120000 0
0.420000 0.120000 0
0.440000 0.120000 0
0.460000 0.120000 0
0.480000 0.120000 0
0.500000 0.120000 0
0.520000 0.120000 0
0.540000 0.120000 0
0.560000 0.120000 0
0.580000 0.120000 0
0.600000 0.120000 0
0.620000 0.120000 0
0.640000 0.120000 0
0.660000 0.120000 0
0.680000 0.120000 0
0.700000 0.120000 0
0.720000 0.120000 0
0.740000 0.120000 0
0.760000 0.120000 0
0.780000 0.120000 0
0.800000 0.120000 0
0.820000 0.120000 0
0.840000 0.120000 0
0.860000 0.120000 0
0.880000 0.120000 0
0.900000 0.120000 0
0.920000 0.120000 0
0.940000 0.120000 0
0.960000 0.120000 0
0.980000 0.120000 0
1.000000 0.120000 0
0.000000 0.140000 0
0.020000 0.140000 0
0.040000 0.140000 0
0.060000 0.140000 0
0.080000 0.140000 0
0.100000 0.140000 0
0.120000 0.140000 0
0.140000 0.140000 0
0.160000 0.140000 0
0.180000 0.140000 0
0.200000 0.140000 0
0.220000 0.140000 0
0.240000 0.140000 0
0.260000 0.140000 0
0.280000 0.140000 0
0.300000 0.140000 0
0.320000 0.140000 0
0.340000 0.140000 0
0.360000 0.140000 0
0.380000 0.140000 0
0.400000 0.140000 0
0.420000 0.140000 0
0.440000 0.140000 0
0.460000 0.140000 0
0.480000 0.140000 0
0.500000 0.140000 0
0.520000 0.140000 0
0.540000 0.140000 0
0.560000 0.140000 0
0.580000 0.140000 0
0.600000 0.140000 0
0.620000 0.140000 0
0.640000 0.140000 0
0.660000 0.140000 0
0.680000 0.140000 0
0.700000 0.140000 0
0.720000 0.140000 0
0.740000 0.140000 0
0.760000 0.140000 0
0.780000 0.140000 0
0.800000 0.140000 0
0.820000 0.140000 0
0.840000 0.140000 0
0.860000 0.140000 0
0.880000 0.140000 0
0.900000 0.140000 0
0.920000 0.140000 0
0.940000 0.140000 0
0.960000 0.140000 0
0.980000 0.140000 0
1.000000 0.140000 0
0.000000 0.160000 0
0.020000 0.160000 0
0.040000 0.160000 0
0.060000 0.160000 0
0.080000 0.160000 0
0.100000 0.160000 0
0.120000 0.160000 0
0.140000 0.160000 0
0.160000 0.160000 0
0.180000 0.160000 0
0.200000 0.160000 0
0.220000 0.160000 0
0.240000 0.160000 0
0.260000 0.160000 0
0.280000 0.160000 0
0.300000 0.160000 0
0.320000 0.160000 0
0.340000 0.160000 0
0.360000 0.160000 0
0.380000 0.160000 0
0.400000 0.160000 0
0.420000 0.160000 0
0.440000 0.160000 0
0.460000 0.160000 0
0.480000 0.160000 0
0.500000 0.160000 0
0.520000 0.160000 0
0.540000 0.160000 0
0.560000 0.160000 0
0.580000 0.160000 0
0.600000 0.160000 0
0.620000 0.160000 0
0.640000 0.160000 0
0.660000 0.160000 0
0.680000 0.160000 0
0.700000 0.160000 0
0.720000 0.160000 0
0.740000 0.160000 0
0.760000 0.160000 0
0.780000 0.160000 0
0.800000 0.160000 0
0.820000 0.160000 0
0.840000 0.160000 0
0.860000 0.160000 0
0.880000 0.160000 0
0.900000 0.160000 0
0.920000 0.160000 0
0.940000 0.160000 0
0.960000 0.160000 0
0.980000 0.160000 0
1.000000 0.160000 0
0.000000 0.180000 0
0.020000 0.180000 0
0.040000 0.180000 0
0.060000 0.180000 0
0.080000 0.180000 0
0.100000 0.180000 0
0.120000 0.180000 0
0.140000 0.180000 0
0.160000 0.180000 0
0.180000 0.180000 0
0.200000 0.180000 0
0.220000 0.180000 0
0.240000 0.180000 0
0.260000 0.180000 0
0.280000 0.180000 0
0.300000 0.180000 0
0.320000 0.180000 0
0.340000 0.180000 0
0.360000 0.180000 0
0.380000 0.180000 0
0.400000 0.180000 0
0.420000 0.180000 0
0.440000 0.180000 0
0.460000 0.180000 0
0.480000 0.180000 0
0.500000 0.180000 0
0.520000 0.180000 0
0.540000 0.180000 0
0.560000 0.180000 0
0.580000 0.180000 0
0.600000 0.180000 0
0.620000 0.180000 0
[...]
POINT_DATA 2601 

VECTORS velocity float
0.000000 0.000000 0
-0.000000 0.000000 0
-0.000000 0.000000 0
-0.000000 0.000000 0
-0.000000 0.000000 0
-0.000000 0.000000 0
-0.000000 0.000000 0
-0.000001 0.000000 0
-0.000001 0.000000 0
-0.000001 0.000000 0
-0.000001 0.000000 0
-0.000001 0.000000 0
-0.000001 0.000000 0
-0.000001 0.000000 0
-0.000001 0.000000 0
-0.000001 0.000000 0
-0.000001 0.000000 0
-0.000000 0.000000 0
-0.000000 0.000000 0
-0.000000 0.000000 0
-0.000000 0.000000 0
0.000000 0.000000 0
0.000000 0.000000 0
0.000000 0.000000 0
0.000000 0.000000 0
0.000000 0.000000 0
0.000000 0.000000 0
0.000000 0.000000 0
0.000000 0.000000 0
0.000000 0.000000 0
0.000000 0.000000 0
0.000001 0.000000 0
0.000000 0.000000 0
0.000000 0.000000 0
0.000000 0.000000 0
0.000000 0.000000 0
0.000000 0.000000 0
0.000000 0.000000 0
0.000000 0.000000 0
0.000000 0.000000 0
0.000000 0.000000 0
0.000000 0.000000 0
0.000000 0.000000 0
0.000000 0.000000 0
0.000000 0.000000 0
0.000000 0.000000 0
0.000000 0.000000 0
0.000000 0.000000 0
0.000000 0.000000 0
0.000000 0.000000 0
0.000000 0.000000 0
0.000000 -0.000000 0
-0.000006 0.000009 0
-0.000321 0.000222 0
-0.001019 0.000459 0
-0.002068 0.000657 0
-0.003386 0.000792 0
-0.004870 0.000860 0
-0.006409 0.000860 0
-0.007899 0.000800 0
-0.009246 0.000689 0
-0.010372 0.000539 0
-0.011222 0.000365 0
-0.011761 0.000177 0
-0.011973 -0.000012 0
-0.011860 -0.000195 0
-0.011437 -0.000362 0
-0.010732 -0.000510 0
-0.009779 -0.000634 0
-0.008619 -0.000732 0
-0.007297 -0.000804 0
-0.005858 -0.000849 0
-0.004346 -0.000869 0
-0.002805 -0.000866 0
-0.001275 -0.000842 0
0.000210 -0.000799 0
0.001615 -0.000741 0
0.002916 -0.000670 0
0.004092 -0.000591 0
0.005126 -0.000505 0
0.006008 -0.000415 0
0.006732 -0.000324 0
0.007296 -0.000234 0
0.007700 -0.000146 0
0.007949 -0.000061 0
0.008049 0.000018 0
0.008008 0.000093 0
0.007835 0.000162 0
0.007541 0.000226 0
0.007135 0.000283 0
0.006628 0.000335 0
0.006031 0.000380 0
0.005358 0.000419 0
0.004623 0.000449 0
0.003843 0.000467 0
0.003041 0.000471 0
0.002248 0.000454 0
0.001502 0.000409 0
0.000852 0.000328 0
0.000355 0.000207 0
0.000065 0.000065 0
0.000000 0.000000 0
0.000000 -0.000000 0
-0.000207 0.000320 0
-0.000988 0.001012 0
-0.002381 0.001746 0
-0.004327 0.002366 0
-0.006703 0.002801 0
-0.009347 0.003023 0
-0.012085 0.003029 0
-0.014746 0.002836 0
-0.017173 0.002472 0
-0.019237 0.001976 0
-0.020840 0.001388 0
-0.021916 0.000750 0
-0.022434 0.000098 0
-0.022390 -0.000536 0
-0.021803 -0.001129 0
-0.020713 -0.001659 0
-0.019175 -0.002113 0
-0.017254 -0.002482 0
-0.015023 -0.002762 0
-0.012558 -0.002951 0
-0.009936 -0.003053 0
-0.007231 -0.003072 0
-0.004515 -0.003015 0
-0.001852 -0.002890 0
0.000700 -0.002707 0
0.003090 -0.002477 0
0.005277 -0.002210 0
0.007229 -0.001917 0
0.008922 -0.001607 0
0.010344 -0.001288 0
0.011484 -0.000968 0
0.012344 -0.000653 0
0.012926 -0.000349 0
0.013240 -0.000059 0
0.013299 0.000214 0
0.013117 0.000467 0
0.012711 0.000701 0
0.012101 0.000913 0
0.011305 0.001103 0
0.010344 0.001270 0
0.009243 0.001409 0
0.008027 0.001516 0
0.006729 0.001582 0
0.005390 0.001595 0
0.004058 0.001539 0
0.002796 0.001396 0
0.001679 0.001147 0
0.000789 0.000787 0
0.000208 0.000355 0
0.000000 0.000000 0
0.000000 0.000000 0
-0.000430 0.000996 0
-0.001695 0.002395 0
-0.003752 0.003798 0
-0.006498 0.004978 0
-0.009776 0.005812 0
-0.013388 0.006242 0
-0.017120 0.006259 0
-0.020759 0.005887 0
-0.024109 0.005179 0
-0.027004 0.004206 0
-0.029316 0.003044 0
-0.030954 0.001771 0
-0.031871 0.000461 0
-0.032054 -0.000826 0
-0.031520 -0.002039 0
-0.030312 -0.003138 0
-0.028494 -0.004093 0
-0.026143 -0.004884 0
-0.023348 -0.005500 0
-0.020204 -0.005937 0
-0.016810 -0.006196 0
-0.013262 -0.006287 0
-0.009654 -0.006221 0
-0.006074 -0.006014 0
-0.002600 -0.005683 0
0.000697 -0.005247 0
0.003756 -0.004729 0
0.006528 -0.004151 0
0.008977 -0.003530 0
0.011076 -0.002886 0
0.012812 -0.002234 0
0.014178 -0.001588 0
0.015174 -0.000958 0
0.015810 -0.000354 0
0.016099 0.000217 0
0.016059 0.000750 0
0.015712 0.001242 0
0.015081 0.001690 0
0.014194 0.002091 0
0.013079 0.002443 0
0.011767 0.002736 0
0.010294 0.002962 0
0.008703 0.003105 0
0.007043 0.003143 0
0.005377 0.003047 0
0.003780 0.002788 0
0.002338 0.002335 0
0.001152 0.001678 0
0.000331 0.000854 0
0.000000 0.000000 0
0.000000 0.000000 0
-0.000623 0.002015 0
-0.002331 0.004334 0
-0.004994 0.006549 0
-0.008457 0.008389 0
-0.012529 0.009690 0
-0.016987 0.010367 0
-0.021588 0.010400 0
-0.026092 0.009825 0
-0.030277 0.008717 0
-0.033952 0.007182 0
-0.036967 0.005338 0
-0.039212 0.003306 0
-0.040624 0.001198 0
-0.041179 -0.000888 0
-0.040890 -0.002871 0
-0.039794 -0.004685 0
-0.037957 -0.006283 0
-0.035459 -0.007629 0
-0.032396 -0.008701 0
-0.028873 -0.009489 0
-0.024999 -0.009995 0
-0.020885 -0.010228 0
-0.016642 -0.010204 0
-0.012372 -0.009945 0
-0.008174 -0.009478 0
-0.004132 -0.008833 0
-0.000324 -0.008041 0
0.003185 -0.007137 0
0.006343 -0.006155 0
0.009111 -0.005123 0
0.011463 -0.004069 0
0.013387 -0.003015 0
0.014878 -0.001981 0
0.015939 -0.000984 0
0.016584 -0.000035 0
0.016830 0.000855 0
0.016701 0.001678 0
0.016223 0.002430 0
0.015428 0.003106 0
0.014349 0.003697 0
0.013023 0.004194 0
0.011492 0.004580 0
0.009803 0.004833 0
0.008013 0.004920 0
0.006189 0.004803 0
0.004412 0.004435 0
0.002777 0.003775 0
0.001398 0.002794 0
0.000414 0.001507 0
0.000000 0.000000 0
0.000000 0.000000 0
-0.000780 0.003327 0
-0.002867 0.006765 0
-0.006063 0.009924 0
-0.010164 0.012514 0
-0.014946 0.014342 0
-0.020162 0.015300 0
-0.025549 0.015364 0
-0.030850 0.014576 0
-0.035824 0.013040 0
-0.040262 0.010895 0
-0.043998 0.008303 0
-0.046907 0.005428 0
-0.048912 0.002428 0
-0.049978 -0.000561 0
-0.050106 -0.003424 0
-0.049329 -0.006071 0
-0.047703 -0.008429 0
-0.045309 -0.010445 0
-0.042239 -0.012086 0
-0.038600 -0.013334 0
-0.034506 -0.014184 0
-0.030075 -0.014644 0
-0.025424 -0.014734 0
-0.020671 -0.014482 0
-0.015924 -0.013923 0
-0.011283 -0.013097 0
-0.006841 -0.012047 0
-0.002673 -0.010818 0
0.001152 -0.009456 0
0.004582 -0.008007 0
0.007576 -0.006511 0
0.010111 -0.005002 0
0.012174 -0.003510 0
0.013764 -0.002061 0
0.014886 -0.000674 0
0.015557 0.000634 0
0.015798 0.001849 0
0.015636 0.002962 0
0.015106 0.003965 0
0.014242 0.004847 0
0.013083 0.005594 0
0.011676 0.006183 0
0.010069 0.006584 0
0.008320 0.006757 0
0.006499 0.006649 0
0.004688 0.006200 0
0.002988 0.005349 0
0.001525 0.004041 0
0.000457 0.002253 0
0.000000 0.000000 0
0.000000 0.000000 0
-0.000902 0.004881 0
-0.003306 0.009617 0
-0.006959 0.013845 0
-0.011621 0.017273 0
-0.017037 0.019688 0
-0.022940 0.020970 0
-0.029052 0.021088 0
-0.035103 0.020099 0
-0.040839 0.018129 0
-0.046040 0.015356 0
-0.050528 0.011983 0
-0.054164 0.008220 0
-0.056860 0.004269 0
-0.058566 0.000306 0
-0.059271 -0.003520 0
-0.058998 -0.007088 0
-0.057794 -0.010303 0
-0.055728 -0.013093 0
-0.052887 -0.015410 0
-0.049372 -0.017222 0
-0.045294 -0.018521 0
-0.040772 -0.019310 0
-0.035926 -0.019607 0
-0.030879 -0.019446 0
-0.025748 -0.018866 0
-0.020645 -0.017916 0
-0.015673 -0.016652 0
-0.010924 -0.015130 0
-0.006477 -0.013410 0
-0.002398 -0.011548 0
0.001258 -0.009598 0
0.004455 -0.007613 0
0.007167 -0.005634 0
0.009381 -0.003695 0
0.011099 -0.001829 0
0.012329 -0.000057 0
0.013088 0.001599 0
0.013401 0.003122 0
0.013299 0.004501 0
0.012819 0.005719 0
0.012000 0.006760 0
0.010887 0.007595 0
0.009530 0.008189 0
0.007986 0.008490 0
0.006322 0.008435 0
0.004619 0.007946 0
0.002981 0.006939 0
0.001538 0.005326 0
0.000466 0.003032 0
0.000000 0.000000 0
0.000000 0.000000 0
-0.000998 0.006632 0
-0.003659 0.012822 0
-0.007698 0.018238 0
-0.012844 0.022592 0
-0.018822 0.025660 0
-0.025347 0.027315 0
-0.032130 0.027526 0
-0.038891 0.026363 0
-0.045371 0.023978 0
-0.051340 0.020583 0
-0.056610 0.016426 0
-0.061035 0.011761 0
-0.064511 0.006829 0
-0.066975 0.001850 0
-0.068404 -0.002993 0
-0.068805 -0.007549 0
-0.068213 -0.011699 0
-0.066682 -0.015352 0
-0.064287 -0.018442 0
-0.061118 -0.020927 0
-0.057277 -0.022784 0
-0.052877 -0.024013 0
-0.048036 -0.024628 0
-0.042877 -0.024661 0
-0.037523 -0.024157 0
-0.032093 -0.023171 0
-0.026699 -0.021767 0
-0.021445 -0.020014 0
-0.016424 -0.017982 0
-0.011717 -0.015743 0
-0.007388 -0.013364 0
-0.003491 -0.010910 0
-0.000065 -0.008436 0
0.002865 -0.005993 0
0.005290 -0.003622 0
0.007207 -0.001356 0
0.008627 0.000777 0
0.009567 0.002752 0
0.010054 0.004547 0
0.010122 0.006146 0
0.009809 0.007525 0
0.009157 0.008652 0
0.008213 0.009485 0
0.007030 0.009965 0
0.005673 0.010015 0
0.004218 0.009541 0
0.002766 0.008430 0
0.001449 0.006557 0
0.000445 0.003791 0
0.000000 0.000000 0
0.000000 0.000001 0
-0.001071 0.008539 0
-0.003937 0.016317 0
-0.008296 0.023031 0
-0.013854 0.028397 0
-0.020323 0.032190 0
-0.027405 0.034277 0
-0.034805 0.034633 0
-0.042238 0.033340 0
-0.049440 0.030578 0
-0.056177 0.026595 0
-0.062254 0.021677 0
-0.067516 0.016120 0
-0.071849 0.010209 0
-0.075177 0.004199 0
-0.077460 -0.001691 0
-0.078688 -0.007280 0
-0.078879 -0.012427 0
-0.078072 -0.017019 0
-0.076323 -0.020974 0
-0.073707 -0.024233 0
-0.070311 -0.026762 0
-0.066238 -0.028551 0
-0.061598 -0.029607 0
-0.056509 -0.029959 0
-0.051094 -0.029650 0
-0.045475 -0.028741 0
-0.039773 -0.027300 0
-0.034100 -0.025404 0
-0.028562 -0.023138 0
-0.023253 -0.020584 0
-0.018254 -0.017824 0
-0.013632 -0.014936 0
-0.009441 -0.011990 0
-0.005718 -0.009051 0
-0.002489 -0.006171 0
0.000234 -0.003394 0
0.002449 -0.000761 0
0.004166 0.001695 0
0.005399 0.003945 0
0.006176 0.005965 0
0.006531 0.007725 0
0.006502 0.009192 0
0.006131 0.010315 0
0.005466 0.011030 0
0.004564 0.011247 0
0.003495 0.010853 0
0.002353 0.009708 0
0.001262 0.007647 0
0.000397 0.004481 0
0.000000 0.000000 0
0.000000 0.000001 0
-0.001125 0.010569 0
-0.004153 0.020047 0
-0.008768 0.028155 0
-0.014670 0.034618 0
-0.021559 0.039210 0
-0.029132 0.041797 0
-0.037092 0.042359 0
-0.045151 0.040997 0
-0.053045 0.037916 0
-0.060539 0.033397 0
-0.067433 0.027765 0
-0.073568 0.021356 0
-0.078819 0.014490 0
-0.083096 0.007460 0
-0.086342 0.000518 0
-0.088530 -0.006129 0
-0.089657 -0.012315 0
-0.089742 -0.017909 0
-0.088822 -0.022808 0
-0.086952 -0.026939 0
-0.084200 -0.030253 0
-0.080652 -0.032726 0
-0.076406 -0.034357 0
-0.071570 -0.035165 0
-0.066262 -0.035191 0
-0.060603 -0.034493 0
-0.054717 -0.033143 0
-0.048724 -0.031225 0
-0.042741 -0.028829 0
-0.036875 -0.026051 0
-0.031221 -0.022985 0
-0.025862 -0.019723 0
-0.020868 -0.016351 0
-0.016293 -0.012945 0
-0.012177 -0.009573 0
-0.008547 -0.006294 0
-0.005415 -0.003155 0
-0.002786 -0.000198 0
-0.000655 0.002538 0
0.000989 0.005014 0
0.002174 0.007199 0
0.002930 0.009052 0
0.003292 0.010521 0
0.003300 0.011532 0
0.003002 0.011986 0
0.002457 0.011752 0
0.001746 0.010663 0
0.000981 0.008512 0
0.000323 0.005053 0
0.000000 0.000000 0
0.000000 0.000001 0
-0.001165 0.012692 0
-0.004313 0.023960 0
-0.009129 0.033548 0
-0.015308 0.041187 0
-0.022547 0.046652 0
-0.030543 0.049810 0
-0.038999 0.050651 0
-0.047631 0.049293 0
-0.056176 0.045965 0
-0.064401 0.040983 0
-0.072106 0.034706 0
-0.079127 0.027505 0
-0.085332 0.019736 0
-0.090619 0.011722 0
-0.094915 0.003743 0
-0.098170 -0.003966 0
-0.100363 -0.011215 0
-0.101489 -0.017854 0
-0.101564 -0.023764 0
-0.100617 -0.028855 0
-0.098696 -0.033062 0
-0.095865 -0.036345 0
-0.092204 -0.038689 0
-0.087806 -0.040103 0
-0.082780 -0.040618 0
-0.077240 -0.040286 0
-0.071310 -0.039178 0
-0.065115 -0.037380 0
-0.058778 -0.034988 0
-0.052418 -0.032104 0
-0.046145 -0.028836 0
-0.040058 -0.025288 0
-0.034242 -0.021559 0
-0.028771 -0.017741 0
-0.023702 -0.013917 0
-0.019077 -0.010156 0
-0.014925 -0.006522 0
-0.011264 -0.003065 0
-0.008099 0.000170 0
-0.005434 0.003136 0
-0.003261 0.005784 0
-0.001560 0.008073 0
-0.000305 0.009945 0
0.000532 0.011320 0
0.000987 0.012090 0
0.001104 0.012109 0
0.000947 0.011184 0
0.000607 0.009069 0
0.000224 0.005462 0
0.000000 0.000000 0
0.000000 0.000001 0
-0.001190 0.014881 0
-0.004424 0.028011 0
-0.009389 0.039150 0
-0.015782 0.048036 0
-0.023303 0.054445 0
-0.031651 0.058249 0
-0.040535 0.059447 0
-0.049676 0.058173 0
-0.058817 0.054686 0
-0.067732 0.049328 0
-0.076221 0.042492 0
-0.084119 0.034582 0
-0.091288 0.025982 0
-0.097619 0.017043 0
-0.103021 0.008068 0
-0.107426 -0.000682 0
-0.110787 -0.008996 0
-0.113078 -0.016708 0
-0.114289 -0.023680 0
-0.114425 -0.029806 0
-0.113507 -0.035005 0
-0.111576 -0.039218 0
-0.108686 -0.042415 0
-0.104914 -0.044589 0
-0.100351 -0.045758 0
-0.095102 -0.045963 0
-0.089284 -0.045268 0
-0.083022 -0.043757 0
-0.076444 -0.041526 0
-0.069678 -0.038684 0
-0.062845 -0.035345 0
-0.056061 -0.031625 0
-0.049430 -0.027637 0
-0.043041 -0.023486 0
-0.036971 -0.019268 0
-0.031281 -0.015071 0
-0.026019 -0.010968 0
-0.021219 -0.007023 0
-0.016903 -0.003292 0
-0.013084 0.000176 0
-0.009771 0.003325 0
-0.006969 0.006096 0
-0.004664 0.008429 0
-0.002843 0.010241 0
-0.001486 0.011415 0
-0.000568 0.011793 0
-0.000048 0.011160 0
0.000139 0.009235 0
0.000098 0.005660 0
0.000000 0.000000 0
0.000000 0.000001 0
-0.001205 0.017115 0
-0.004492 0.032158 0
-0.009558 0.044906 0
-0.016106 0.055101 0
-0.023840 0.062520 0
-0.032468 0.067042 0
-0.041706 0.068676 0
-0.051285 0.067575 0
-0.060958 0.064021 0
-0.070503 0.058386 0
-0.079728 0.051093 0
-0.088469 0.042573 0
-0.096587 0.033236 0
-0.103963 0.023454 0
-0.110496 0.013550 0
-0.116101 0.003801 0
-0.120704 -0.005563 0
-0.124255 -0.014352 0
-0.126718 -0.022418 0
-0.128073 -0.029637 0
-0.128312 -0.035911 0
-0.127448 -0.041166 0
-0.125510 -0.045350 0
-0.122549 -0.048438 0
-0.118635 -0.050430 0
-0.113857 -0.051353 0
-0.108322 -0.051258 0
-0.102148 -0.050220 0
-0.095463 -0.048332 0
-0.088402 -0.045704 0
-0.081095 -0.042453 0
-0.073673 -0.038704 0
-0.066255 -0.034580 0
-0.058952 -0.030201 0
-0.051858 -0.025676 0
-0.045056 -0.021108 0
-0.038615 -0.016583 0
-0.032587 -0.012180 0
-0.027014 -0.007965 0
-0.021925 -0.003997 0
-0.017344 -0.000331 0
-0.013291 0.002967 0
-0.009784 0.005820 0
-0.006826 0.008142 0
-0.004420 0.009815 0
-0.002562 0.010671 0
-0.001241 0.010478 0
-0.000427 0.008923 0
-0.000055 0.005601 0
0.000000 -0.000000 0
0.000000 0.000001 0
-0.001209 0.019373 0
-0.004522 0.036365 0
-0.009646 0.050764 0
-0.016292 0.062318 0
-0.024173 0.070807 0
-0.033009 0.076115 0
-0.042525 0.078264 0
-0.052464 0.077425 0
-0.062590 0.073903 0
-0.072692 0.068097 0
-0.082585 0.060458 0
-0.092112 0.051440 0
-0.101133 0.041476 0
-0.109526 0.030953 0
-0.117181 0.020206 0
-0.123998 0.009526 0
-0.129884 -0.000842 0
-0.134759 -0.010694 0
-0.138560 -0.019863 0
-0.141242 -0.028212 0
-0.142769 -0.035629 0
-0.143122 -0.042020 0
-0.142302 -0.047314 0
-0.140329 -0.051465 0
-0.137250 -0.054450 0
-0.133129 -0.056276 0
-0.128058 -0.056978 0
-0.122143 -0.056615 0
-0.115508 -0.055272 0
-0.108286 -0.053052 0
-0.100618 -0.050074 0
-0.092644 -0.046465 0
-0.084498 -0.042358 0
-0.076310 -0.037883 0
-0.068196 -0.033163 0
-0.060260 -0.028314 0
-0.052592 -0.023438 0
-0.045267 -0.018624 0
-0.038349 -0.013953 0
-0.031889 -0.009494 0
-0.025928 -0.005309 0
-0.020503 -0.001463 0
-0.015653 0.001965 0
-0.011412 0.004877 0
-0.007813 0.007150 0
-0.004880 0.008614 0
-0.002636 0.009026 0
-0.001094 0.008049 0
-0.000237 0.005233 0
0.000000 -0.000000 0
0.000000 0.000001 0
-0.001204 0.021637 0
-0.004518 0.040596 0
-0.009661 0.056676 0
-0.016353 0.069628 0
-0.024320 0.079238 0
-0.033291 0.085394 0
-0.043007 0.088131 0
-0.053222 0.087640 0
-0.063715 0.084248 0
-0.074287 0.078382 0
-0.084765 0.070513 0
-0.094997 0.061120 0
-0.104850 0.050650 0
-0.114200 0.039503 0
-0.122934 0.028022 0
-0.130939 0.016503 0
-0.138108 0.005198 0
-0.144335 -0.005676 0
-0.149528 -0.015934 0
-0.153614 -0.025428 0
-0.156529 -0.034031 0
-0.158224 -0.041633 0
-0.158668 -0.048143 0
-0.157850 -0.053490 0
-0.155783 -0.057630 0
-0.152506 -0.060545 0
-0.148087 -0.062245 0
-0.142615 -0.062770 0
-0.136203 -0.062189 0
-0.128979 -0.060593 0
-0.121086 -0.058096 0
-0.112672 -0.054824 0
-0.103886 -0.050914 0
-0.094873 -0.046503 0
-0.085770 -0.041726 0
-0.076704 -0.036712 0
-0.067789 -0.031576 0
-0.059123 -0.026423 0
-0.050795 -0.021344 0
-0.042878 -0.016417 0
-0.035440 -0.011716 0
-0.028540 -0.007309 0
-0.022233 -0.003272 0
-0.016584 0.000302 0
-0.011656 0.003283 0
-0.007516 0.005495 0
-0.004231 0.006692 0
-0.001860 0.006524 0
-0.000448 0.004507 0
0.000000 -0.000000 0
0.000000 0.000002 0
-0.001192 0.023891 0
-0.004486 0.044821 0
-0.009611 0.062598 0
-0.016302 0.076976 0
-0.024296 0.087745 0
-0.033334 0.094802 0
-0.043171 0.098195 0
-0.053577 0.098133 0
-0.064345 0.094967 0
-0.075291 0.089147 0
-0.086254 0.081168 0
-0.097093 0.071525 0
-0.107681 0.060679 0
-0.117901 0.049037 0
-0.127636 0.036945 0
-0.136769 0.024700 0
-0.145181 0.012553 0
-0.152749 0.000726 0
-0.159351 -0.010583 0
-0.164882 -0.021212 0
-0.169252 -0.031019 0
-0.172384 -0.039881 0
-0.174212 -0.047689 0
-0.174692 -0.054350 0
-0.173802 -0.059793 0
-0.171550 -0.063972 0
-0.167972 -0.066869 0
-0.163135 -0.068500 0
-0.157132 -0.068908 0
-0.150082 -0.068168 0
-0.142124 -0.066381 0
-0.133408 -0.063666 0
-0.124095 -0.060158 0
-0.114345 -0.055999 0
-0.104315 -0.051332 0
-0.094153 -0.046295 0
-0.083997 -0.041018 0
-0.073973 -0.035618 0
-0.064194 -0.030198 0
-0.054762 -0.024848 0
-0.045769 -0.019648 0
-0.037301 -0.014670 0
-0.029444 -0.009991 0
-0.022284 -0.005701 0
-0.015919 -0.001917 0
-0.010458 0.001190 0
-0.006019 0.003370 0
-0.002724 0.004266 0
-0.000688 0.003373 0
0.000000 -0.000001 0
0.000000 0.000002 0
-0.001174 0.026122 0
-0.004429 0.049015 0
-0.009507 0.068492 0
-0.016155 0.084312 0
-0.024120 0.096269 0
-0.033160 0.104269 0
-0.043042 0.108374 0
-0.053552 0.108814 0
-0.064500 0.105962 0
-0.075716 0.100290 0
-0.087055 0.092315 0
-0.098387 0.082548 0
-0.109596 0.071458 0
-0.120571 0.059457 0
-0.131200 0.046890 0
-0.141366 0.034048 0
-0.150942 0.021178 0
-0.159793 0.008495 0
-0.167780 -0.003801 0
-0.174760 -0.015527 0
-0.180616 -0.026529 0
-0.185242 -0.036673 0
-0.188543 -0.045835 0
-0.190438 -0.053900 0
-0.190870 -0.060772 0
-0.189808 -0.066375 0
-0.187254 -0.070660 0
-0.183243 -0.073611 0
-0.177844 -0.075241 0
-0.171159 -0.075601 0
-0.163314 -0.074769 0
-0.154459 -0.072852 0
-0.144760 -0.069977 0
-0.134388 -0.066283 0
-0.123519 -0.061919 0
-0.112323 -0.057029 0
-0.100964 -0.051756 0
-0.089593 -0.046226 0
-0.078352 -0.040555 0
-0.067371 -0.034843 0
-0.056771 -0.029177 0
-0.046669 -0.023634 0
-0.037180 -0.018288 0
-0.028426 -0.013222 0
-0.020539 -0.008543 0
-0.013667 -0.004406 0
-0.007983 -0.001042 0
-0.003680 0.001194 0
-0.000956 0.001783 0
0.000000 -0.000001 0
0.000000 0.000002 0
-0.001151 0.028320 0
-0.004352 0.053154 0
-0.009358 0.074324 0
-0.015925 0.091589 0
-0.023814 0.104750 0
-0.032794 0.113724 0
-0.042648 0.118587 0
-0.053179 0.119591 0
-0.064210 0.117131 0
-0.075590 0.111702 0
-0.087188 0.103838 0
-0.098888 0.094066 0
-0.110587 0.082863 0
-0.122184 0.070641 0
-0.133574 0.057740 0
-0.144644 0.044441 0
-0.155267 0.030981 0
-0.165302 0.017565 0
-0.174599 0.004383 0
-0.182993 -0.008375 0
-0.190326 -0.020536 0
-0.196467 -0.031954 0
-0.201290 -0.042494 0
-0.204683 -0.052023 0
-0.206551 -0.060423 0
-0.206823 -0.067587 0
-0.205461 -0.073434 0
-0.202464 -0.077909 0
-0.197867 -0.080992 0
-0.191745 -0.082699 0
-0.184208 -0.083080 0
-0.175396 -0.082220 0
-0.165475 -0.080229 0
-0.154624 -0.077239 0
-0.143034 -0.073397 0
-0.130895 -0.068851 0
-0.118397 -0.063749 0
-0.105720 -0.058230 0
-0.093034 -0.052421 0
-0.080500 -0.046429 0
-0.068271 -0.040349 0
-0.056497 -0.034260 0
-0.045325 -0.028234 0
-0.034913 -0.022343 0
-0.025434 -0.016676 0
-0.017083 -0.011366 0
-0.010088 -0.006618 0
-0.004712 -0.002761 0
-0.001248 -0.000306 0
0.000000 -0.000001 0
0.000000 0.000002 0
-0.001125 0.030474 0
-0.004260 0.057221 0
-0.009172 0.080064 0
-0.015627 0.098768 0
-0.023397 0.113138 0
-0.032263 0.123103 0
-0.042022 0.128759 0
-0.052492 0.130376 0
-0.063512 0.128373 0
-0.074948 0.123268 0
-0.086685 0.115613 0
-0.098622 0.105947 0
-0.110670 0.094754 0
-0.122739 0.082444 0
-0.134737 0.069350 0
-0.146557 0.055741 0
-0.158078 0.041836 0
-0.169161 0.027827 0
-0.179648 0.013889 0
-0.189367 0.000200 0
-0.198128 -0.013055 0
-0.205760 -0.025709 0
-0.212114 -0.037618 0