# vtk DataFile Version 2.0
generated by CFD-lab course output (written by Tobias Neckel) 
ASCII

DATASET STRUCTURED_GRID
DIMENSIONS  51 51 1 
POINTS 2601 float

0.000000 0.000000 0
0.020000 0.000000 0
0.040000 0.000000 0
0.060000 0.000000 0
0.080000 0.000000 0
0.100000 0.000000 0
0.120000 0.000000 0
0.140000 0.000000 0
0.160000 0.000000 0
0.180000 0.000000 0
0.200000 0.000000 0
0.220000 0.000000 0
0.240000 0.000000 0
0.260000 0.000000 0
0.280000 0.000000 0
0.300000 0.000000 0
0.320000 0.000000 0
0.340000 0.000000 0
0.360000 0.000000 0
0.380000 0.000000 0
0.400000 0.000000 0
0.420000 0.000000 0
0.440000 0.000000 0
0.460000 0.000000 0
0.480000 0.000000 0
0.500000 0.000000 0
0.520000 0.000000 0
0.540000 0.000000 0
0.560000 0.000000 0
0.580000 0.000000 0
0.600000 0.000000 0
0.620000 0.000000 0
0.640000 0.000000 0
0.660000 0.000000 0
0.680000 0.000000 0
0.700000 0.000000 0
0.720000 0.000000 0
0.740000 0.000000 0
0.760000 0.000000 0
0.780000 0.000000 0
0.800000 0.000000 0
0.820000 0.000000 0
0.840000 0.000000 0
0.860000 0.000000 0
0.880000 0.000000 0
0.900000 0.000000 0
0.920000 0.000000 0
0.940000 0.000000 0
0.960000 0.000000 0
0.980000 0.000000 0
1.000000 0.000000 0
0.000000 0.020000 0
0.020000 0.020000 0
0.040000 0.020000 0
0.060000 0.020000 0
0.080000 0.020000 0
0.100000 0.020000 0
0.120000 0.020000 0
0.140000 0.020000 0
0.160000 0.020000 0
0.180000 0.020000 0
0.200000 0.020000 0
0.220000 0.020000 0
0.240000 0.020000 0
0.260000 0.020000 0
0.280000 0.020000 0
0.300000 0.020000 0
0.320000 0.020000 0
0.340000 0.020000 0
0.360000 0.020000 0
0.380000 0.020000 0
0.400000 0.020000 0
0.420000 0.020000 0
0.440000 0.020000 0
0.460000 0.020000 0
0.480000 0.020000 0
0.500000 0.020000 0
0.520000 0.020000 0
0.540000 0.020000 0
0.560000 0.020000 0
0.580000 0.020000 0
0.600000 0.020000 0
0.620000 0.020000 0
0.640000 0.020000 0
0.660000 0.020000 0
0.680000 0.020000 0
0.700000 0.020000 0
0.720000 0.020000 0
0.740000 0.020000 0
0.760000 0.020000 0
0.780000 0.020000 0
0.800000 0.020000 0
0.820000 0.020000 0
0.840000 0.020000 0
0.860000 0.020000 0
0.880000 0.020000 0
0.900000 0.020000 0
0.920000 0.020000 0
0.940000 0.020000 0
0.960000 0.020000 0
0.980000 0.020000 0
1.000000 0.020000 0
0.000000 0.040000 0
0.020000 0.040000 0
0.040000 0.040000 0
0.060000 0.040000 0
0.080000 0.040000 0
0.100000 0.040000 0
0.120000 0.040000 0
0.140000 0.040000 0
0.160000 0.040000 0
0.180000 0.040000 0
0.200000 0.040000 0
0.220000 0.040000 0
0.240000 0.040000 0
0.260000 0.040000 0
0.280000 0.040000 0
0.300000 0.040000 0
0.320000 0.040000 0
0.340000 0.040000 0
0.360000 0.040000 0
0.380000 0.040000 0
0.400000 0.040000 0
0.420000 0.040000 0
0.440000 0.040000 0
0.460000 0.040000 0
0.480000 0.040000 0
0.500000 0.040000 0
0.520000 0.040000 0
0.540000 0.040000 0
0.560000 0.040000 0
0.580000 0.040000 0
0.600000 0.040000 0
0.620000 0.040000 0
0.640000 0.040000 0
0.660000 0.040000 0
0.680000 0.040000 0
0.700000 0.040000 0
0.720000 0.040000 0
0.740000 0.040000 0
0.760000 0.040000 0
0.780000 0.040000 0
0.800000 0.040000 0
0.820000 0.040000 0
0.840000 0.040000 0
0.860000 0.040000 0
0.880000 0.040000 0
0.900000 0.040000 0
0.920000 0.040000 0
0.940000 0.040000 0
0.960000 0.040000 0
0.980000 0.040000 0
1.000000 0.040000 0
0.000000 0.060000 0
0.020000 0.060000 0
0.040000 0.060000 0
0.060000 0.060000 0
0.080000 0.060000 0
0.100000 0.060000 0
0.120000 0.060000 0
0.140000 0.060000 0
0.160000 0.060000 0
0.180000 0.060000 0
0.200000 0.060000 0
0.220000 0.060000 0
0.240000 0.060000 0
0.260000 0.060000 0
0.280000 0.060000 0
0.300000 0.060000 0
0.320000 0.060000 0
0.340000 0.060000 0
0.360000 0.060000 0
0.380000 0.060000 0
0.400000 0.060000 0
0.420000 0.060000 0
0.440000 0.060000 0
0.460000 0.060000 0
0.480000 0.060000 0
0.500000 0.060000 0
0.520000 0.060000 0
0.540000 0.060000 0
0.560000 0.060000 0
0.580000 0.060000 0
0.600000 0.060000 0
0.620000 0.060000 0
0.640000 0.060000 0
0.660000 0.060000 0
0.680000 0.060000 0
0.700000 0.060000 0
0.720000 0.060000 0
0.740000 0.060000 0
0.760000 0.060000 0
0.780000 0.060000 0
0.800000 0.060000 0
0.820000 0.060000 0
0.840000 0.060000 0
0.860000 0.060000 0
0.880000 0.060000 0
0.900000 0.060000 0
0.920000 0.060000 0
0.940000 0.060000 0
0.960000 0.060000 0
0.980000 0.060000 0
1.000000 0.060000 0
0.000000 0.080000 0
0.020000 0.080000 0
0.040000 0.080000 0
0.060000 0.080000 0
0.080000 0.080000 0
0.100000 0.080000 0
0.120000 0.080000 0
0.140000 0.080000 0
0.160000 0.080000 0
0.180000 0.080000 0
0.200000 0.080000 0
0.220000 0.080000 0
0.240000 0.080000 0
0.260000 0.080000 0
0.280000 0.080000 0
0.300000 0.080000 0
0.320000 0.080000 0
0.340000 0.080000 0
0.360000 0.080000 0
0.380000 0.080000 0
0.400000 0.080000 0
0.420000 0.080000 0
0.440000 0.080000 0
0.460000 0.080000 0
0.480000 0.080000 0
0.500000 0.080000 0
0.520000 0.080000 0
0.540000 0.080000 0
0.560000 0.080000 0
0.580000 0.080000 0
0.600000 0.080000 0
0.620000 0.080000 0
0.640000 0.080000 0
0.660000 0.080000 0
0.680000 0.080000 0
0.700000 0.080000 0
0.720000 0.080000 0
0.740000 0.080000 0
0.760000 0.080000 0
0.780000 0.080000 0
0.800000 0.080000 0
0.820000 0.080000 0
0.840000 0.080000 0
0.860000 0.080000 0
0.880000 0.080000 0
0.900000 0.080000 0
0.920000 0.080000 0
0.940000 0.080000 0
0.960000 0.080000 0
0.980000 0.080000 0
1.000000 0.080000 0
0.000000 0.100000 0
0.020000 0.100000 0
0.040000 0.100000 0
0.060000 0.100000 0
0.080000 0.100000 0
0.100000 0.100000 0
0.120000 0.100000 0
0.140000 0.100000 0
0.160000 0.100000 0
0.180000 0.100000 0
0.200000 0.100000 0
0.220000 0.100000 0
0.240000 0.100000 0
0.260000 0.100000 0
0.280000 0.100000 0
0.300000 0.100000 0
0.320000 0.100000 0
0.340000 0.100000 0
0.360000 0.100000 0
0.380000 0.100000 0
0.400000 0.100000 0
0.420000 0.100000 0
0.440000 0.100000 0
0.460000 0.100000 0
0.480000 0.100000 0
0.500000 0.100000 0
0.520000 0.100000 0
0.540000 0.100000 0
0.560000 0.100000 0
0.580000 0.100000 0
0.600000 0.100000 0
0.620000 0.100000 0
0.640000 0.100000 0
0.660000 0.100000 0
0.680000 0.100000 0
0.700000 0.100000 0
0.720000 0.100000 0
0.740000 0.100000 0
0.760000 0.100000 0
0.780000 0.100000 0
0.800000 0.100000 0
0.820000 0.100000 0
0.840000 0.100000 0
0.860000 0.100000 0
0.880000 0.100000 0
0.900000 0.100000 0
0.920000 0.100000 0
0.940000 0.100000 0
0.960000 0.100000 0
0.980000 0.100000 0
1.000000 0.100000 0
0.000000 0.120000 0
0.020000 0.120000 0
0.040000 0.120000 0
0.060000 0.120000 0
0.080000 0.120000 0
0.100000 0.120000 0
0.120000 0.120000 0
0.140000 0.120000 0
0.160000 0.120000 0
0.180000 0.120000 0
0.200000 0.120000 0
0.220000 0.120000 0
0.240000 0.120000 0
0.260000 0.120000 0
0.280000 0.120000 0
0.300000 0.120000 0
0.320000 0.120000 0
0.340000 0.120000 0
0.360000 0.120000 0
0.380000 0.120000 0
0.400000 0.120000 0
0.420000 0.120000 0
0.440000 0.120000 0
0.460000 0.120000 0
0.480000 0.120000 0
0.500000 0.120000 0
0.520000 0.120000 0
0.540000 0.120000 0
0.560000 0.120000 0
0.580000 0.120000 0
0.600000 0.120000 0
0.620000 0.120000 0
0.640000 0.120000 0
0.660000 0.120000 0
0.680000 0.120000 0
0.700000 0.120000 0
0.720000 0.120000 0
0.740000 0.120000 0
0.760000 0.120000 0
0.780000 0.120000 0
0.800000 0.120000 0
0.820000 0.120000 0
0.840000 0.120000 0
0.860000 0.120000 0
0.880000 0.120000 0
0.900000 0.120000 0
0.920000 0.120000 0
0.940000 0.120000 0
0.960000 0.120000 0
0.980000 0.120000 0
1.000000 0.120000 0
0.000000 0.140000 0
0.020000 0.140000 0
0.040000 0.140000 0
0.060000 0.140000 0
0.080000 0.140000 0
0.100000 0.140000 0
0.120000 0.140000 0
0.140000 0.140000 0
0.160000 0.140000 0
0.180000 0.140000 0
0.200000 0.140000 0
0.220000 0.140000 0
0.240000 0.140000 0
0.260000 0.140000 0
0.280000 0.140000 0
0.300000 0.140000 0
0.320000 0.140000 0
0.340000 0.140000 0
0.360000 0.140000 0
0.380000 0.140000 0
0.400000 0.140000 0
0.420000 0.140000 0
0.440000 0.140000 0
0.460000 0.140000 0
0.480000 0.140000 0
0.500000 0.140000 0
0.520000 0.140000 0
0.540000 0.140000 0
0.560000 0.140000 0
0.580000 0.140000 0
0.600000 0.140000 0
0.620000 0.140000 0
0.640000 0.140000 0
0.660000 0.140000 0
0.680000 0.140000 0
0.700000 0.140000 0
0.720000 0.140000 0
0.740000 0.140000 0
0.760000 0.140000 0
0.780000 0.140000 0
0.800000 0.140000 0
0.820000 0.140000 0
0.840000 0.140000 0
0.860000 0.140000 0
0.880000 0.140000 0
0.900000 0.140000 0
0.920000 0.140000 0
0.940000 0.140000 0
0.960000 0.140000 0
0.980000 0.140000 0
1.000000 0.140000 0
0.000000 0.160000 0
0.020000 0.160000 0
0.040000 0.160000 0
0.060000 0.160000 0
0.080000 0.160000 0
0.100000 0.160000 0
0.120000 0.160000 0
0.140000 0.160000 0
0.160000 0.160000 0
0.180000 0.160000 0
0.200000 0.160000 0
0.220000 0.160000 0
0.240000 0.160000 0
0.260000 0.160000 0
0.280000 0.160000 0
0.300000 0.160000 0
0.320000 0.160000 0
0.340000 0.160000 0
0.360000 0.160000 0
0.380000 0.160000 0
0.400000 0.160000 0
0.420000 0.160000 0
0.440000 0.160000 0
0.460000 0.160000 0
0.480000 0.160000 0
0.500000 0.160000 0
0.520000 0.160000 0
0.540000 0.160000 0
0.560000 0.160000 0
0.580000 0.160000 0
0.600000 0.160000 0
0.620000 0.160000 0
0.640000 0.160000 0
0.660000 0.160000 0
0.680000 0.160000 0
0.700000 0.160000 0
0.720000 0.160000 0
0.740000 0.160000 0
0.760000 0.160000 0
0.780000 0.160000 0
0.800000 0.160000 0
0.820000 0.160000 0
0.840000 0.160000 0
0.860000 0.160000 0
0.880000 0.160000 0
0.900000 0.160000 0
0.920000 0.160000 0
0.940000 0.160000 0
0.960000 0.160000 0
0.980000 0.160000 0
1.000000 0.160000 0
0.000000 0.180000 0
0.020000 0.180000 0
0.040000 0.180000 0
0.060000 0.180000 0
0.080000 0.180000 0
0.100000 0.180000 0
0.120000 0.180000 0
0.140000 0.180000 0
0.160000 0.180000 0
0.180000 0.180000 0
0.200000 0.180000 0
0.220000 0.180000 0
0.240000 0.180000 0
0.260000 0.180000 0
0.280000 0.180000 0
0.300000 0.180000 0
0.320000 0.180000 0
0.340000 0.180000 0
0.360000 0.180000 0
0.380000 0.180000 0
0.400000 0.180000 0
0.420000 0.180000 0
0.440000 0.180000 0
0.460000 0.180000 0
0.480000 0.180000 0
0.500000 0.180000 0
0.520000 0.180000 0
0.540000 0.180000 0
0.560000 0.180000 0
0.580000 0.180000 0
0.600000 0.180000 0
0.620000 0.180000 0
[...]
POINT_DATA 2601 

VECTORS velocity float
0.000000 0.000000 0
0.000000 0.000000 0
-0.000000 0.000000 0
-0.000000 0.000000 0
-0.000000 0.000000 0
-0.000001 0.000000 0
-0.000001 0.000000 0
-0.000001 0.000000 0
-0.000001 0.000000 0
-0.000002 0.000000 0
-0.000002 0.000000 0
-0.000001 0.000000 0
-0.000001 0.000000 0
-0.000001 0.000000 0
-0.000001 0.000000 0
-0.000000 0.000000 0
-0.000000 0.000000 0
0.000000 0.000000 0
0.000001 0.000000 0
0.000001 0.000000 0
0.000001 0.000000 0
0.000002 0.000000 0
0.000002 0.000000 0
0.000002 0.000000 0
0.000003 0.000000 0
0.000003 0.000000 0
0.000003 0.000000 0
0.000003 0.000000 0
0.000003 0.000000 0
0.000003 0.000000 0
0.000003 0.000000 0
0.000003 0.000000 0
0.000003 0.000000 0
0.000003 0.000000 0
0.000002 0.000000 0
0.000002 0.000000 0
0.000002 0.000000 0
0.000002 0.000000 0
0.000002 0.000000 0
0.000001 0.000000 0
0.000001 0.000000 0
0.000001 0.000000 0
0.000001 0.000000 0
0.000001 0.000000 0
0.000001 0.000000 0
0.000000 0.000000 0
0.000000 0.000000 0
0.000000 0.000000 0
0.000000 0.000000 0
-0.000000 0.000000 0
0.000000 0.000000 0
0.000000 -0.000000 0
-0.000004 0.000005 0
-0.000269 0.000186 0
-0.000861 0.000389 0
-0.001757 0.000562 0
-0.002893 0.000684 0
-0.004185 0.000752 0
-0.005544 0.000765 0
-0.006883 0.000727 0
-0.008123 0.000646 0
-0.009195 0.000529 0
-0.010046 0.000387 0
-0.010640 0.000229 0
-0.010954 0.000065 0
-0.010985 -0.000097 0
-0.010737 -0.000250 0
-0.010229 -0.000388 0
-0.009488 -0.000508 0
-0.008546 -0.000606 0
-0.007441 -0.000682 0
-0.006211 -0.000734 0
-0.004896 -0.000764 0
-0.003536 -0.000772 0
-0.002166 -0.000761 0
-0.000820 -0.000732 0
0.000471 -0.000687 0
0.001682 -0.000631 0
0.002791 -0.000565 0
0.003783 -0.000492 0
0.004645 -0.000415 0
0.005369 -0.000335 0
0.005951 -0.000254 0
0.006390 -0.000175 0
0.006688 -0.000097 0
0.006848 -0.000023 0
0.006877 0.000048 0
0.006782 0.000114 0
0.006570 0.000175 0
0.006251 0.000231 0
0.005833 0.000282 0
0.005328 0.000327 0
0.004746 0.000365 0
0.004103 0.000395 0
0.003415 0.000414 0
0.002704 0.000419 0
0.001998 0.000404 0
0.001334 0.000364 0
0.000755 0.000291 0
0.000314 0.000184 0
0.000057 0.000057 0
0.000000 -0.000000 0
0.000000 0.000000 0
-0.000175 0.000268 0
-0.000838 0.000857 0
-0.002027 0.001488 0
-0.003696 0.002031 0
-0.005748 0.002427 0
-0.008055 0.002650 0
-0.010475 0.002698 0
-0.012866 0.002578 0
-0.015095 0.002311 0
-0.017046 0.001922 0
-0.018628 0.001444 0
-0.019774 0.000907 0
-0.020444 0.000344 0
-0.020622 -0.000218 0
-0.020315 -0.000756 0
-0.019547 -0.001249 0
-0.018359 -0.001684 0
-0.016803 -0.002048 0
-0.014940 -0.002336 0
-0.012835 -0.002545 0
-0.010556 -0.002676 0
-0.008170 -0.002731 0
-0.005743 -0.002716 0
-0.003333 -0.002637 0
-0.000997 -0.002502 0
0.001219 -0.002321 0
0.003271 -0.002101 0
0.005129 -0.001854 0
0.006766 -0.001586 0
0.008166 -0.001306 0
0.009318 -0.001021 0
0.010218 -0.000737 0
0.010866 -0.000458 0
0.011267 -0.000189 0
0.011430 0.000067 0
0.011367 0.000307 0
0.011091 0.000531 0
0.010618 0.000737 0
0.009966 0.000923 0
0.009153 0.001087 0
0.008202 0.001225 0
0.007138 0.001332 0
0.005992 0.001399 0
0.004802 0.001417 0
0.003615 0.001370 0
0.002489 0.001243 0
0.001493 0.001020 0
0.000700 0.000699 0
0.000184 0.000314 0
0.000000 0.000000 0
0.000000 0.000000 0
-0.000366 0.000843 0
-0.001446 0.002037 0
-0.003208 0.003247 0
-0.005569 0.004283 0
-0.008406 0.005043 0
-0.011561 0.005479 0
-0.014860 0.005575 0
-0.018125 0.005346 0
-0.021189 0.004826 0
-0.023905 0.004062 0
-0.026152 0.003115 0
-0.027841 0.002045 0
-0.028913 0.000913 0
-0.029343 -0.000226 0
-0.029132 -0.001325 0
-0.028305 -0.002344 0
-0.026909 -0.003252 0
-0.025005 -0.004025 0
-0.022666 -0.004650 0
-0.019976 -0.005118 0
-0.017020 -0.005429 0
-0.013886 -0.005586 0
-0.010658 -0.005598 0
-0.007420 -0.005477 0
-0.004245 -0.005239 0
-0.001199 -0.004899 0
0.001657 -0.004475 0
0.004276 -0.003987 0
0.006618 -0.003452 0
0.008656 -0.002887 0
0.010371 -0.002306 0
0.011754 -0.001722 0
0.012801 -0.001146 0
0.013516 -0.000587 0
0.013908 -0.000052 0
0.013992 0.000453 0
0.013785 0.000923 0
0.013307 0.001356 0
0.012581 0.001747 0
0.011635 0.002091 0
0.010496 0.002380 0
0.009200 0.002605 0
0.007787 0.002750 0
0.006305 0.002796 0
0.004812 0.002717 0
0.003379 0.002486 0
0.002087 0.002080 0
0.001026 0.001492 0
0.000294 0.000757 0
0.000000 0.000000 0
0.000000 0.000000 0
-0.000534 0.001713 0
-0.001997 0.003698 0
-0.004283 0.005610 0
-0.007268 0.007229 0
-0.010798 0.008418 0
-0.014693 0.009104 0
-0.018757 0.009261 0
-0.022789 0.008907 0
-0.026599 0.008091 0
-0.030017 0.006885 0
-0.032903 0.005379 0
-0.035147 0.003668 0
-0.036679 0.001846 0
-0.037459 0.000000 0
-0.037481 -0.001794 0
-0.036768 -0.003473 0
-0.035365 -0.004984 0
-0.033335 -0.006291 0
-0.030759 -0.007365 0
-0.027727 -0.008192 0
-0.024336 -0.008766 0
-0.020687 -0.009092 0
-0.016879 -0.009182 0
-0.013011 -0.009051 0
-0.009172 -0.008723 0
-0.005445 -0.008223 0
-0.001904 -0.007577 0
0.001388 -0.006814 0
0.004379 -0.005966 0
0.007027 -0.005059 0
0.009305 -0.004119 0
0.011195 -0.003166 0
0.012690 -0.002220 0
0.013790 -0.001297 0
0.014503 -0.000410 0
0.014841 0.000431 0
0.014824 0.001217 0
0.014475 0.001941 0
0.013823 0.002595 0
0.012897 0.003172 0
0.011732 0.003660 0
0.010368 0.004041 0
0.008851 0.004295 0
0.007234 0.004392 0
0.005584 0.004296 0
0.003974 0.003968 0
0.002496 0.003374 0
0.001253 0.002492 0
0.000369 0.001340 0
0.000000 0.000000 0
0.000000 0.000001 0
-0.000670 0.002839 0
-0.002464 0.005786 0
-0.005215 0.008517 0
-0.008756 0.010798 0
-0.012906 0.012469 0
-0.017465 0.013437 0
-0.022219 0.013671 0
-0.026951 0.013188 0
-0.031456 0.012054 0
-0.035549 0.010366 0
-0.039072 0.008245 0
-0.041903 0.005820 0
-0.043957 0.003224 0
-0.045183 0.000576 0
-0.045567 -0.002016 0
-0.045123 -0.004461 0
-0.043890 -0.006685 0
-0.041932 -0.008631 0
-0.039325 -0.010258 0
-0.036164 -0.011541 0
-0.032549 -0.012469 0
-0.028589 -0.013042 0
-0.024392 -0.013274 0
-0.020067 -0.013185 0
-0.015717 -0.012805 0
-0.011437 -0.012167 0
-0.007315 -0.011309 0
-0.003427 -0.010270 0
0.000164 -0.009091 0
0.003403 -0.007813 0
0.006250 -0.006475 0
0.008678 -0.005108 0
0.010672 -0.003741 0
0.012227 -0.002399 0
0.013347 -0.001102 0
0.014042 0.000132 0
0.014332 0.001289 0
0.014240 0.002357 0
0.013796 0.003325 0
0.013032 0.004182 0
0.011987 0.004909 0
0.010702 0.005487 0
0.009227 0.005884 0
0.007618 0.006063 0
0.005941 0.005977 0
0.004275 0.005574 0
0.002716 0.004802 0
0.001380 0.003619 0
0.000411 0.002010 0
0.000000 0.000000 0
0.000000 0.000001 0
-0.000778 0.004177 0
-0.002850 0.008242 0
-0.006002 0.011902 0
-0.010035 0.014921 0
-0.014741 0.017128 0
-0.019902 0.018416 0
-0.025290 0.018747 0
-0.030678 0.018144 0
-0.035848 0.016688 0
-0.040605 0.014500 0
-0.044779 0.011733 0
-0.048237 0.008553 0
-0.050882 0.005126 0
-0.052650 0.001610 0
-0.053517 -0.001855 0
-0.053486 -0.005150 0
-0.052589 -0.008176 0
-0.050879 -0.010856 0
-0.048432 -0.013133 0
-0.045334 -0.014968 0
-0.041688 -0.016341 0
-0.037602 -0.017250 0
-0.033189 -0.017704 0
-0.028565 -0.017727 0
-0.023841 -0.017353 0
-0.019125 -0.016624 0
-0.014514 -0.015587 0
-0.010097 -0.014294 0
-0.005951 -0.012796 0
-0.002140 -0.011146 0
0.001284 -0.009394 0
0.004283 -0.007588 0
0.006829 -0.005769 0
0.008910 -0.003972 0
0.010524 -0.002225 0
0.011679 -0.000554 0
0.012389 0.001019 0
0.012676 0.002477 0
0.012569 0.003803 0
0.012103 0.004981 0
0.011314 0.005989 0
0.010247 0.006801 0
0.008950 0.007380 0
0.007479 0.007678 0
0.005900 0.007638 0
0.004294 0.007193 0
0.002758 0.006269 0
0.001415 0.004797 0
0.000425 0.002720 0
0.000000 0.000001 0
0.000000 0.000001 0
-0.000864 0.005688 0
-0.003164 0.011010 0
-0.006659 0.015702 0
-0.011120 0.019536 0
-0.016321 0.022335 0
-0.022029 0.023986 0
-0.028004 0.024446 0
-0.034012 0.023746 0
-0.039827 0.021980 0
-0.045245 0.019296 0
-0.050091 0.015877 0
-0.054220 0.011923 0
-0.057522 0.007636 0
-0.059926 0.003211 0
-0.061391 -0.001181 0
-0.061910 -0.005389 0
-0.061503 -0.009291 0
-0.060211 -0.012788 0
-0.058100 -0.015804 0
-0.055248 -0.018285 0
-0.051752 -0.020202 0
-0.047716 -0.021541 0
-0.043253 -0.022311 0
-0.038480 -0.022533 0
-0.033516 -0.022245 0
-0.028473 -0.021494 0
-0.023462 -0.020336 0
-0.018580 -0.018833 0
-0.013919 -0.017049 0
-0.009553 -0.015049 0
-0.005546 -0.012897 0
-0.001949 -0.010652 0
0.001201 -0.008368 0
0.003880 -0.006095 0
0.006077 -0.003872 0
0.007792 -0.001733 0
0.009035 0.000292 0
0.009822 0.002177 0
0.010181 0.003899 0
0.010142 0.005437 0
0.009744 0.006765 0
0.009028 0.007851 0
0.008040 0.008652 0
0.006836 0.009112 0
0.005478 0.009162 0
0.004044 0.008717 0
0.002631 0.007681 0
0.001366 0.005952 0
0.000415 0.003425 0
0.000000 0.000001 0
0.000000 0.000002 0
-0.000930 0.007340 0
-0.003417 0.014037 0
-0.007199 0.019857 0
-0.012029 0.024583 0
-0.017667 0.028036 0
-0.023867 0.030098 0
-0.030385 0.030730 0
-0.036979 0.029967 0
-0.043419 0.027921 0
-0.049497 0.024764 0
-0.055032 0.020707 0
-0.059871 0.015984 0
-0.063896 0.010833 0
-0.067021 0.005479 0
-0.069194 0.000129 0
-0.070392 -0.005038 0
-0.070620 -0.009875 0
-0.069907 -0.014259 0
-0.068302 -0.018096 0
-0.065873 -0.021316 0
-0.062703 -0.023874 0
-0.058890 -0.025749 0
-0.054541 -0.026939 0
-0.049771 -0.027464 0
-0.044700 -0.027360 0
-0.039445 -0.026678 0
-0.034124 -0.025480 0
-0.028845 -0.023837 0
-0.023710 -0.021823 0
-0.018808 -0.019518 0
-0.014216 -0.016998 0
-0.009995 -0.014335 0
-0.006196 -0.011598 0
-0.002853 -0.008848 0
0.000011 -0.006137 0
0.002386 -0.003512 0
0.004274 -0.001011 0
0.005686 0.001331 0
0.006637 0.003483 0
0.007159 0.005418 0
0.007285 0.007104 0
0.007054 0.008505 0
0.006508 0.009572 0
0.005697 0.010241 0
0.004682 0.010431 0
0.003533 0.010039 0
0.002344 0.008947 0
0.001239 0.007013 0
0.000383 0.004086 0
0.000000 0.000001 0
0.000000 0.000002 0
-0.000982 0.009105 0
-0.003618 0.017278 0
-0.007636 0.024313 0
-0.012779 0.030004 0
-0.018797 0.034173 0
-0.025437 0.036704 0
-0.032449 0.037557 0
-0.039592 0.036779 0
-0.046633 0.034499 0
-0.053363 0.030909 0
-0.059597 0.026250 0
-0.065178 0.020786 0
-0.069978 0.014787 0
-0.073901 0.008509 0
-0.076880 0.002190 0
-0.078875 -0.003963 0
-0.079876 -0.009777 0
-0.079894 -0.015106 0
-0.078960 -0.019838 0
-0.077125 -0.023884 0
-0.074458 -0.027185 0
-0.071042 -0.029703 0
-0.066975 -0.031430 0
-0.062365 -0.032375 0
-0.057328 -0.032572 0
-0.051984 -0.032070 0
-0.046454 -0.030936 0
-0.040856 -0.029246 0
-0.035300 -0.027086 0
-0.029889 -0.024544 0
-0.024713 -0.021710 0
-0.019848 -0.018671 0
-0.015359 -0.015510 0
-0.011292 -0.012302 0
-0.007684 -0.009111 0
-0.004553 -0.005997 0
-0.001911 -0.003008 0
0.000244 -0.000187 0
0.001922 0.002425 0
0.003140 0.004789 0
0.003927 0.006871 0
0.004316 0.008629 0
0.004346 0.010008 0
0.004061 0.010938 0
0.003512 0.011327 0
0.002763 0.011054 0
0.001900 0.009975 0
0.001036 0.007913 0
0.000331 0.004665 0
0.000000 0.000001 0
0.000000 0.000002 0
-0.001020 0.010958 0
-0.003773 0.020691 0
-0.007982 0.029018 0
-0.013385 0.035744 0
-0.019725 0.040693 0
-0.026750 0.043751 0
-0.034207 0.044884 0
-0.041856 0.044150 0
-0.049467 0.041693 0
-0.056830 0.037728 0
-0.063762 0.032521 0
-0.070100 0.026365 0
-0.075714 0.019556 0
-0.080495 0.012381 0
-0.084363 0.005104 0
-0.087261 -0.002042 0
-0.089160 -0.008856 0
-0.090050 -0.015175 0
-0.089944 -0.020865 0
-0.088872 -0.025818 0
-0.086881 -0.029958 0
-0.084039 -0.033232 0
-0.080428 -0.035616 0
-0.076143 -0.037111 0
-0.071295 -0.037741 0
-0.065998 -0.037552 0
-0.060376 -0.036608 0
-0.054551 -0.034991 0
-0.048643 -0.032790 0
-0.042765 -0.030105 0
-0.037021 -0.027038 0
-0.031504 -0.023689 0
-0.026292 -0.020154 0
-0.021448 -0.016523 0
-0.017021 -0.012876 0
-0.013047 -0.009284 0
-0.009548 -0.005809 0
-0.006533 -0.002502 0
-0.004002 0.000588 0
-0.001950 0.003413 0
-0.000361 0.005928 0
0.000792 0.008086 0
0.001538 0.009827 0
0.001913 0.011076 0
0.001959 0.011729 0
0.001729 0.011652 0
0.001295 0.010673 0
0.000757 0.008582 0
0.000258 0.005123 0
0.000000 0.000001 0
0.000000 0.000003 0
-0.001048 0.012877 0
-0.003889 0.024239 0
-0.008246 0.033925 0
-0.013857 0.041747 0
-0.020466 0.047538 0
-0.027818 0.051186 0
-0.035666 0.052663 0
-0.043771 0.052039 0
-0.051910 0.049473 0
-0.059877 0.045204 0
-0.067489 0.039520 0
-0.074586 0.032738 0
-0.081032 0.025181 0
-0.086711 0.017158 0
-0.091532 0.008956 0
-0.095420 0.000834 0
-0.098324 -0.006987 0
-0.100214 -0.014322 0
-0.101080 -0.021017 0
-0.100929 -0.026947 0
-0.099787 -0.032017 0
-0.097696 -0.036157 0
-0.094719 -0.039326 0
-0.090937 -0.041508 0
-0.086443 -0.042717 0
-0.081348 -0.042989 0
-0.075769 -0.042383 0
-0.069831 -0.040980 0
-0.063659 -0.038872 0
-0.057377 -0.036165 0
-0.051102 -0.032971 0
-0.044940 -0.029401 0
-0.038988 -0.025567 0
-0.033325 -0.021572 0
-0.028018 -0.017511 0
-0.023119 -0.013469 0
-0.018664 -0.009522 0
-0.014678 -0.005733 0
-0.011172 -0.002158 0
-0.008151 0.001148 0
-0.005616 0.004130 0
-0.003555 0.006731 0
-0.001948 0.008887 0
-0.000771 0.010517 0
0.000005 0.011511 0
0.000418 0.011718 0
0.000522 0.010947 0
0.000397 0.008949 0
0.000163 0.005421 0
0.000000 0.000001 0
0.000000 0.000003 0
-0.001066 0.014846 0
-0.003969 0.027888 0
-0.008436 0.038987 0
-0.014207 0.047963 0
-0.021029 0.054653 0
-0.028652 0.058951 0
-0.036832 0.060838 0
-0.045338 0.060394 0
-0.053953 0.057798 0
-0.062479 0.053306 0
-0.070738 0.047230 0
-0.078574 0.039907 0
-0.085850 0.031681 0
-0.092446 0.022881 0
-0.098257 0.013812 0
-0.103197 0.004750 0
-0.107192 -0.004063 0
-0.110190 -0.012419 0
-0.112156 -0.020150 0
-0.113073 -0.027112 0
-0.112940 -0.033191 0
-0.111775 -0.038299 0
-0.109614 -0.042376 0
-0.106516 -0.045388 0
-0.102558 -0.047330 0
-0.097834 -0.048226 0
-0.092454 -0.048126 0
-0.086539 -0.047101 0
-0.080217 -0.045244 0
-0.073619 -0.042663 0
-0.066872 -0.039475 0
-0.060099 -0.035803 0
-0.053410 -0.031769 0
-0.046906 -0.027492 0
-0.040672 -0.023082 0
-0.034778 -0.018638 0
-0.029279 -0.014250 0
-0.024215 -0.009994 0
-0.019617 -0.005939 0
-0.015501 -0.002143 0
-0.011879 0.001331 0
-0.008761 0.004418 0
-0.006144 0.007044 0
-0.004019 0.009123 0
-0.002373 0.010540 0
-0.001187 0.011135 0
-0.000431 0.010695 0
-0.000050 0.008941 0
0.000044 0.005519 0
0.000000 0.000001 0
0.000000 0.000003 0
-0.001076 0.016845 0
-0.004017 0.031608 0
-0.008559 0.044163 0
-0.014445 0.054341 0
-0.021427 0.061982 0
-0.029262 0.066989 0
-0.037713 0.069349 0
-0.046557 0.069159 0
-0.055588 0.066614 0
-0.064616 0.061989 0
-0.073473 0.055615 0
-0.082009 0.047850 0
-0.090088 0.039052 0
-0.097589 0.029565 0
-0.104403 0.019708 0
-0.110428 0.009768 0
-0.115574 0.000005 0
-0.119762 -0.009358 0
-0.122933 -0.018134 0
-0.125045 -0.026164 0
-0.126068 -0.033316 0
-0.125991 -0.039483 0
-0.124824 -0.044584 0
-0.122596 -0.048564 0
-0.119361 -0.051399 0
-0.115194 -0.053093 0
-0.110188 -0.053678 0
-0.104457 -0.053216 0
-0.098125 -0.051792 0
-0.091326 -0.049510 0
-0.084196 -0.046491 0
-0.076870 -0.042863 0
-0.069476 -0.038759 0
-0.062133 -0.034310 0
-0.054945 -0.029639 0
-0.048004 -0.024863 0
-0.041387 -0.020084 0
-0.035153 -0.015394 0
-0.029353 -0.010873 0
-0.024020 -0.006589 0
-0.019183 -0.002611 0
-0.014864 0.000995 0
-0.011085 0.004146 0
-0.007862 0.006747 0
-0.005201 0.008679 0
-0.003107 0.009776 0
-0.001577 0.009810 0
-0.000592 0.008475 0
-0.000102 0.005371 0
0.000000 0.000000 0
0.000000 0.000004 0
-0.001079 0.018862 0
-0.004038 0.035370 0
-0.008621 0.049414 0
-0.014580 0.060832 0
-0.021672 0.069470 0
-0.029661 0.075237 0
-0.038319 0.078133 0
-0.047435 0.078269 0
-0.056813 0.075857 0
-0.066275 0.071191 0
-0.075664 0.064622 0
-0.084840 0.056522 0
-0.093672 0.047262 0
-0.102042 0.037196 0
-0.109838 0.026651 0
-0.116949 0.015921 0
-0.123271 0.005271 0
-0.128701 -0.005060 0
-0.133155 -0.014867 0
-0.136562 -0.023977 0
-0.138866 -0.032245 0
-0.140025 -0.039543 0
-0.140017 -0.045771 0
-0.138841 -0.050850 0
-0.136520 -0.054733 0
-0.133102 -0.057400 0
-0.128662 -0.058862 0
-0.123295 -0.059164 0
-0.117119 -0.058375 0
-0.110264 -0.056592 0
-0.102870 -0.053931 0
-0.095082 -0.050523 0
-0.087043 -0.046507 0
-0.078890 -0.042023 0
-0.070749 -0.037210 0
-0.062734 -0.032197 0
-0.054944 -0.027101 0
-0.047464 -0.022028 0
-0.040365 -0.017072 0
-0.033703 -0.012313 0
-0.027528 -0.007825 0
-0.021880 -0.003680 0
-0.016798 0.000041 0
-0.012324 0.003239 0
-0.008499 0.005785 0
-0.005357 0.007511 0
-0.002928 0.008180 0
-0.001235 0.007466 0
-0.000276 0.004927 0
0.000000 -0.000000 0
0.000000 0.000004 0
-0.001075 0.020883 0
-0.004035 0.039151 0
-0.008631 0.054705 0
-0.014624 0.067391 0
-0.021777 0.077063 0
-0.029863 0.083635 0
-0.038665 0.087123 0
-0.047982 0.087652 0
-0.057631 0.085453 0
-0.067450 0.080841 0
-0.077293 0.074180 0
-0.087030 0.065857 0
-0.096543 0.056255 0
-0.105719 0.045731 0
-0.114446 0.034614 0
-0.122609 0.023201 0
-0.130095 0.011757 0
-0.136785 0.000527 0
-0.142566 -0.010273 0
-0.147338 -0.020453 0
-0.151018 -0.029853 0
-0.153534 -0.038332 0
-0.154830 -0.045769 0
-0.154872 -0.052062 0
-0.153649 -0.057138 0
-0.151177 -0.060950 0
-0.147502 -0.063485 0
-0.142697 -0.064759 0
-0.136863 -0.064824 0
-0.130122 -0.063760 0
-0.122613 -0.061673 0
-0.114486 -0.058690 0
-0.105895 -0.054951 0
-0.096995 -0.050604 0
-0.087932 -0.045795 0
-0.078844 -0.040667 0
-0.069855 -0.035354 0
-0.061074 -0.029974 0
-0.052598 -0.024634 0
-0.044510 -0.019426 0
-0.036884 -0.014434 0
-0.029784 -0.009734 0
-0.023274 -0.005409 0
-0.017416 -0.001552 0
-0.012283 0.001711 0
-0.007951 0.004205 0
-0.004495 0.005689 0
-0.001987 0.005823 0
-0.000483 0.004136 0
0.000000 -0.000001 0
0.000000 0.000004 0
-0.001066 0.022896 0
-0.004010 0.042927 0
-0.008595 0.060003 0
-0.014585 0.073977 0
-0.021755 0.084709 0
-0.029885 0.092125 0
-0.038768 0.096252 0
-0.048215 0.097235 0
-0.058057 0.095324 0
-0.068147 0.090853 0
-0.078353 0.084202 0
-0.088560 0.075772 0
-0.098662 0.065951 0
-0.108555 0.055098 0
-0.118131 0.043541 0
-0.127280 0.031570 0
-0.135880 0.019447 0
-0.143804 0.007412 0
-0.150916 -0.004314 0
-0.157086 -0.015526 0
-0.162202 -0.026049 0
-0.166164 -0.035730 0
-0.168883 -0.044432 0
-0.170287 -0.052032 0
-0.170330 -0.058428 0
-0.168991 -0.063547 0
-0.166281 -0.067342 0
-0.162244 -0.069802 0
-0.156956 -0.070949 0
-0.150523 -0.070842 0
-0.143075 -0.069567 0
-0.134762 -0.067241 0
-0.125745 -0.063998 0
-0.116194 -0.059987 0
-0.106273 -0.055361 0
-0.096145 -0.050274 0
-0.085958 -0.044871 0
-0.075850 -0.039285 0
-0.065946 -0.033635 0
-0.056358 -0.028027 0
-0.047186 -0.022551 0
-0.038525 -0.017290 0
-0.030466 -0.012327 0
-0.023104 -0.007751 0
-0.016539 -0.003680 0
-0.010889 -0.000277 0
-0.006281 0.002217 0
-0.002849 0.003454 0
-0.000722 0.002941 0
0.000000 -0.000001 0
0.000000 0.000005 0
-0.001053 0.024893 0
-0.003969 0.046679 0
-0.008519 0.065280 0
-0.014477 0.080551 0
-0.021623 0.092362 0
-0.029746 0.100648 0
-0.038649 0.105454 0
-0.048156 0.106942 0
-0.058111 0.105385 0
-0.068382 0.101136 0
-0.078854 0.094593 0
-0.089427 0.086167 0
-0.100009 0.076249 0
-0.110508 0.065200 0
-0.120827 0.053340 0
-0.130861 0.040950 0
-0.140488 0.028281 0
-0.149576 0.015563 0
-0.157978 0.003010 0
-0.165541 -0.009167 0
-0.172114 -0.020775 0
-0.177571 -0.031652 0
-0.181792 -0.041645 0
-0.184672 -0.050614 0
-0.186124 -0.058434 0
-0.186088 -0.064999 0
-0.184534 -0.070232 0
-0.181469 -0.074084 0
-0.176938 -0.076545 0
-0.171021 -0.077641 0
-0.163833 -0.077434 0
-0.155515 -0.076019 0
-0.146231 -0.073519 0
-0.136157 -0.070075 0
-0.125478 -0.065844 0
-0.114375 -0.060983 0
-0.103026 -0.055648 0
-0.091597 -0.049985 0
-0.080243 -0.044126 0
-0.069107 -0.038186 0
-0.058322 -0.032267 0
-0.048013 -0.026454 0
-0.038306 -0.020830 0
-0.029329 -0.015478 0
-0.021222 -0.010504 0
-0.014143 -0.006054 0
-0.008274 -0.002351 0
-0.003819 0.000264 0
-0.000993 0.001287 0
0.000000 -0.000002 0
0.000000 0.000005 0
-0.001036 0.026865 0
-0.003915 0.050393 0
-0.008413 0.070511 0
-0.014312 0.087081 0
-0.021398 0.099977 0
-0.029468 0.109151 0
-0.038334 0.114662 0
-0.047832 0.116697 0
-0.057820 0.115550 0
-0.068181 0.111595 0
-0.078816 0.105247 0
-0.089643 0.096927 0
-0.100584 0.087032 0
-0.111563 0.075917 0
-0.122496 0.063894 0
-0.133286 0.051231 0
-0.143819 0.038162 0
-0.153963 0.024901 0
-0.163567 0.011651 0
-0.172463 -0.001390 0
-0.180472 -0.014018 0
-0.187430 -0.026052 0
-0.193193 -0.037330 0
-0.197621 -0.047699 0