# vtk DataFile Version 2.0
generated by CFD-lab course output (written by Tobias Neckel) 
ASCII

DATASET STRUCTURED_GRID
DIMENSIONS  51 51 1 
POINTS 2601 float

0.000000 0.000000 0
0.020000 0.000000 0
0.040000 0.000000 0
0.060000 0.000000 0
0.080000 0.000000 0
0.100000 0.000000 0
0.120000 0.000000 0
0.140000 0.000000 0
0.160000 0.000000 0
0.180000 0.000000 0
0.200000 0.000000 0
0.220000 0.000000 0
0.240000 0.000000 0
0.260000 0.000000 0
0.280000 0.000000 0
0.300000 0.000000 0
0.320000 0.000000 0
0.340000 0.000000 0
0.360000 0.000000 0
0.380000 0.000000 0
0.400000 0.000000 0
0.420000 0.000000 0
0.440000 0.000000 0
0.460000 0.000000 0
0.480000 0.000000 0
0.500000 0.000000 0
0.520000 0.000000 0
0.540000 0.000000 0
0.560000 0.000000 0
0.580000 0.000000 0
0.600000 0.000000 0
0.620000 0.000000 0
0.640000 0.000000 0
0.660000 0.000000 0
0.680000 0.000000 0
0.700000 0.000000 0
0.720000 0.000000 0
0.740000 0.000000 0
0.760000 0.000000 0
0.780000 0.000000 0
0.800000 0.000000 0
0.820000 0.000000 0
0.840000 0.000000 0
0.860000 0.000000 0
0.880000 0.000000 0
0.900000 0.000000 0
0.920000 0.000000 0
0.940000 0.000000 0
0.960000 0.000000 0
0.980000 0.000000 0
1.000000 0.000000 0
0.000000 0.020000 0
0.020000 0.020000 0
0.040000 0.020000 0
0.060000 0.020000 0
0.080000 0.020000 0
0.100000 0.020000 0
0.120000 0.020000 0
0.140000 0.020000 0
0.160000 0.020000 0
0.180000 0.020000 0
0.200000 0.020000 0
0.220000 0.020000 0
0.240000 0.020000 0
0.260000 0.020000 0
0.280000 0.020000 0
0.300000 0.020000 0
0.320000 0.020000 0
0.340000 0.020000 0
0.360000 0.020000 0
0.380000 0.020000 0
0.400000 0.020000 0
0.420000 0.020000 0
0.440000 0.020000 0
0.460000 0.020000 0
0.480000 0.020000 0
0.500000 0.020000 0
0.520000 0.020000 0
0.540000 0.020000 0
0.560000 0.020000 0
0.580000 0.020000 0
0.600000 0.020000 0
0.620000 0.020000 0
0.640000 0.020000 0
0.660000 0.020000 0
0.680000 0.020000 0
0.700000 0.020000 0
0.720000 0.020000 0
0.740000 0.020000 0
0.760000 0.020000 0
0.780000 0.020000 0
0.800000 0.020000 0
0.820000 0.020000 0
0.840000 0.020000 0
0.860000 0.020000 0
0.880000 0.020000 0
0.900000 0.020000 0
0.920000 0.020000 0
0.940000 0.020000 0
0.960000 0.020000 0
0.980000 0.020000 0
1.000000 0.020000 0
0.000000 0.040000 0
0.020000 0.040000 0
0.040000 0.040000 0
0.060000 0.040000 0
0.080000 0.040000 0
0.100000 0.040000 0
0.120000 0.040000 0
0.140000 0.040000 0
0.160000 0.040000 0
0.180000 0.040000 0
0.200000 0.040000 0
0.220000 0.040000 0
0.240000 0.040000 0
0.260000 0.040000 0
0.280000 0.040000 0
0.300000 0.040000 0
0.320000 0.040000 0
0.340000 0.040000 0
0.360000 0.040000 0
0.380000 0.040000 0
0.400000 0.040000 0
0.420000 0.040000 0
0.440000 0.040000 0
0.460000 0.040000 0
0.480000 0.040000 0
0.500000 0.040000 0
0.520000 0.040000 0
0.540000 0.040000 0
0.560000 0.040000 0
0.580000 0.040000 0
0.600000 0.040000 0
0.620000 0.040000 0
0.640000 0.040000 0
0.660000 0.040000 0
0.680000 0.040000 0
0.700000 0.040000 0
0.720000 0.040000 0
0.740000 0.040000 0
0.760000 0.040000 0
0.780000 0.040000 0
0.800000 0.040000 0
0.820000 0.040000 0
0.840000 0.040000 0
0.860000 0.040000 0
0.880000 0.040000 0
0.900000 0.040000 0
0.920000 0.040000 0
0.940000 0.040000 0
0.960000 0.040000 0
0.980000 0.040000 0
1.000000 0.040000 0
0.000000 0.060000 0
0.020000 0.060000 0
0.040000 0.060000 0
0.060000 0.060000 0
0.080000 0.060000 0
0.100000 0.060000 0
0.120000 0.060000 0
0.140000 0.060000 0
0.160000 0.060000 0
0.180000 0.060000 0
0.200000 0.060000 0
0.220000 0.060000 0
0.240000 0.060000 0
0.260000 0.060000 0
0.280000 0.060000 0
0.300000 0.060000 0
0.320000 0.060000 0
0.340000 0.060000 0
0.360000 0.060000 0
0.380000 0.060000 0
0.400000 0.060000 0
0.420000 0.060000 0
0.440000 0.060000 0
0.460000 0.060000 0
0.480000 0.060000 0
0.500000 0.060000 0
0.520000 0.060000 0
0.540000 0.060000 0
0.560000 0.060000 0
0.580000 0.060000 0
0.600000 0.060000 0
0.620000 0.060000 0
0.640000 0.060000 0
0.660000 0.060000 0
0.680000 0.060000 0
0.700000 0.060000 0
0.720000 0.060000 0
0.740000 0.060000 0
0.760000 0.060000 0
0.780000 0.060000 0
0.800000 0.060000 0
0.820000 0.060000 0
0.840000 0.060000 0
0.860000 0.060000 0
0.880000 0.060000 0
0.900000 0.060000 0
0.920000 0.060000 0
0.940000 0.060000 0
0.960000 0.060000 0
0.980000 0.060000 0
1.000000 0.060000 0
0.000000 0.080000 0
0.020000 0.080000 0
0.040000 0.080000 0
0.060000 0.080000 0
0.080000 0.080000 0
0.100000 0.080000 0
0.120000 0.080000 0
0.140000 0.080000 0
0.160000 0.080000 0
0.180000 0.080000 0
0.200000 0.080000 0
0.220000 0.080000 0
0.240000 0.080000 0
0.260000 0.080000 0
0.280000 0.080000 0
0.300000 0.080000 0
0.320000 0.080000 0
0.340000 0.080000 0
0.360000 0.080000 0
0.380000 0.080000 0
0.400000 0.080000 0
0.420000 0.080000 0
0.440000 0.080000 0
0.460000 0.080000 0
0.480000 0.080000 0
0.500000 0.080000 0
0.520000 0.080000 0
0.540000 0.080000 0
0.560000 0.080000 0
0.580000 0.080000 0
0.600000 0.080000 0
0.620000 0.080000 0
0.640000 0.080000 0
0.660000 0.080000 0
0.680000 0.080000 0
0.700000 0.080000 0
0.720000 0.080000 0
0.740000 0.080000 0
0.760000 0.080000 0
0.780000 0.080000 0
0.800000 0.080000 0
0.820000 0.080000 0
0.840000 0.080000 0
0.860000 0.080000 0
0.880000 0.080000 0
0.900000 0.080000 0
0.920000 0.080000 0
0.940000 0.080000 0
0.960000 0.080000 0
0.980000 0.080000 0
1.000000 0.080000 0
0.000000 0.100000 0
0.020000 0.100000 0
0.040000 0.100000 0
0.060000 0.100000 0
0.080000 0.100000 0
0.100000 0.100000 0
0.120000 0.100000 0
0.140000 0.100000 0
0.160000 0.100000 0
0.180000 0.100000 0
0.200000 0.100000 0
0.220000 0.100000 0
0.240000 0.100000 0
0.260000 0.100000 0
0.280000 0.100000 0
0.300000 0.100000 0
0.320000 0.100000 0
0.340000 0.100000 0
0.360000 0.100000 0
0.380000 0.100000 0
0.400000 0.100000 0
0.420000 0.100000 0
0.440000 0.100000 0
0.460000 0.100000 0
0.480000 0.100000 0
0.500000 0.100000 0
0.520000 0.100000 0
0.540000 0.100000 0
0.560000 0.100000 0
0.580000 0.100000 0
0.600000 0.100000 0
0.620000 0.100000 0
0.640000 0.100000 0
0.660000 0.100000 0
0.680000 0.100000 0
0.700000 0.100000 0
0.720000 0.100000 0
0.740000 0.100000 0
0.760000 0.100000 0
0.780000 0.100000 0
0.800000 0.100000 0
0.820000 0.100000 0
0.840000 0.100000 0
0.860000 0.100000 0
0.880000 0.100000 0
0.900000 0.100000 0
0.920000 0.100000 0
0.940000 0.100000 0
0.960000 0.100000 0
0.980000 0.100000 0
1.000000 0.100000 0
0.000000 0.120000 0
0.020000 0.120000 0
0.040000 0.120000 0
0.060000 0.120000 0
0.080000 0.120000 0
0.100000 0.120000 0
0.120000 0.120000 0
0.140000 0.120000 0
0.160000 0.120000 0
0.180000 0.120000 0
0.200000 0.120000 0
0.220000 0.120000 0
0.240000 0.120000 0
0.260000 0.120000 0
0.280000 0.120000 0
0.300000 0.120000 0
0.320000 0.120000 0
0.340000 0.120000 0
0.360000 0.120000 0
0.380000 0.120000 0
0.400000 0.120000 0
0.420000 0.120000 0
0.440000 0.120000 0
0.460000 0.120000 0
0.480000 0.120000 0
0.500000 0.120000 0
0.520000 0.120000 0
0.540000 0.120000 0
0.560000 0.120000 0
0.580000 0.120000 0
0.600000 0.120000 0
0.620000 0.120000 0
0.640000 0.120000 0
0.660000 0.120000 0
0.680000 0.120000 0
0.700000 0.120000 0
0.720000 0.120000 0
0.740000 0.120000 0
0.760000 0.120000 0
0.780000 0.120000 0
0.800000 0.120000 0
0.820000 0.120000 0
0.840000 0.120000 0
0.860000 0.120000 0
0.880000 0.120000 0
0.900000 0.120000 0
0.920000 0.120000 0
0.940000 0.120000 0
0.960000 0.120000 0
0.980000 0.120000 0
1.000000 0.120000 0
0.000000 0.140000 0
0.020000 0.140000 0
0.040000 0.140000 0
0.060000 0.140000 0
0.080000 0.140000 0
0.100000 0.140000 0
0.120000 0.140000 0
0.140000 0.140000 0
0.160000 0.140000 0
0.180000 0.140000 0
0.200000 0.140000 0
0.220000 0.140000 0
0.240000 0.140000 0
0.260000 0.140000 0
0.280000 0.140000 0
0.300000 0.140000 0
0.320000 0.140000 0
0.340000 0.140000 0
0.360000 0.140000 0
0.380000 0.140000 0
0.400000 0.140000 0
0.420000 0.140000 0
0.440000 0.140000 0
0.460000 0.140000 0
0.480000 0.140000 0
0.500000 0.140000 0
0.520000 0.140000 0
0.540000 0.140000 0
0.560000 0.140000 0
0.580000 0.140000 0
0.600000 0.140000 0
0.620000 0.140000 0
0.640000 0.140000 0
0.660000 0.140000 0
0.680000 0.140000 0
0.700000 0.140000 0
0.720000 0.140000 0
0.740000 0.140000 0
0.760000 0.140000 0
0.780000 0.140000 0
0.800000 0.140000 0
0.820000 0.140000 0
0.840000 0.140000 0
0.860000 0.140000 0
0.880000 0.140000 0
0.900000 0.140000 0
0.920000 0.140000 0
0.940000 0.140000 0
0.960000 0.140000 0
0.980000 0.140000 0
1.000000 0.140000 0
0.000000 0.160000 0
0.020000 0.160000 0
0.040000 0.160000 0
0.060000 0.160000 0
0.080000 0.160000 0
0.100000 0.160000 0
0.120000 0.160000 0
0.140000 0.160000 0
0.160000 0.160000 0
0.180000 0.160000 0
0.200000 0.160000 0
0.220000 0.160000 0
0.240000 0.160000 0
0.260000 0.160000 0
0.280000 0.160000 0
0.300000 0.160000 0
0.320000 0.160000 0
0.340000 0.160000 0
0.360000 0.160000 0
0.380000 0.160000 0
0.400000 0.160000 0
0.420000 0.160000 0
0.440000 0.160000 0
0.460000 0.160000 0
0.480000 0.160000 0
0.500000 0.160000 0
0.520000 0.160000 0
0.540000 0.160000 0
0.560000 0.160000 0
0.580000 0.160000 0
0.600000 0.160000 0
0.620000 0.160000 0
0.640000 0.160000 0
0.660000 0.160000 0
0.680000 0.160000 0
0.700000 0.160000 0
0.720000 0.160000 0
0.740000 0.160000 0
0.760000 0.160000 0
0.780000 0.160000 0
0.800000 0.160000 0
0.820000 0.160000 0
0.840000 0.160000 0
0.860000 0.160000 0
0.880000 0.160000 0
0.900000 0.160000 0
0.920000 0.160000 0
0.940000 0.160000 0
0.960000 0.160000 0
0.980000 0.160000 0
1.000000 0.160000 0
0.000000 0.180000 0
0.020000 0.180000 0
0.040000 0.180000 0
0.060000 0.180000 0
0.080000 0.180000 0
0.100000 0.180000 0
0.120000 0.180000 0
0.140000 0.180000 0
0.160000 0.180000 0
0.180000 0.180000 0
0.200000 0.180000 0
0.220000 0.180000 0
0.240000 0.180000 0
0.260000 0.180000 0
0.280000 0.180000 0
0.300000 0.180000 0
0.320000 0.180000 0
0.340000 0.180000 0
0.360000 0.180000 0
0.380000 0.180000 0
0.400000 0.180000 0
0.420000 0.180000 0
0.440000 0.180000 0
0.460000 0.180000 0
0.480000 0.180000 0
0.500000 0.180000 0
0.520000 0.180000 0
0.540000 0.180000 0
0.560000 0.180000 0
0.580000 0.180000 0
0.600000 0.180000 0
0.620000 0.180000 0
[...]
POINT_DATA 2601 

VECTORS velocity float
0.000000 0.000000 0
-0.000002 0.000000 0
-0.000008 0.000000 0
-0.000015 0.000000 0
-0.000024 0.000000 0
-0.000034 0.000000 0
-0.000046 0.000000 0
-0.000059 0.000000 0
-0.000074 0.000000 0
-0.000076 0.000000 0
-0.000069 0.000000 0
-0.000055 0.000000 0
-0.000034 0.000000 0
-0.000009 0.000000 0
0.000016 0.000000 0
0.000032 0.000000 0
0.000037 0.000000 0
0.000036 0.000000 0
0.000030 0.000000 0
0.000022 0.000000 0
0.000012 0.000000 0
0.000003 0.000000 0
-0.000004 0.000000 0
-0.000006 0.000000 0
-0.000004 0.000000 0
-0.000002 0.000000 0
-0.000002 0.000000 0
-0.000002 0.000000 0
-0.000002 0.000000 0
-0.000001 0.000000 0
-0.000001 0.000000 0
-0.000000 0.000000 0
0.000001 0.000000 0
0.000001 0.000000 0
0.000002 0.000000 0
0.000003 0.000000 0
0.000004 0.000000 0
0.000004 0.000000 0
0.000005 0.000000 0
0.000005 0.000000 0
0.000005 0.000000 0
0.000005 0.000000 0
0.000005 0.000000 0
0.000005 0.000000 0
0.000004 0.000000 0
0.000004 0.000000 0
0.000003 0.000000 0
0.000002 0.000000 0
0.000001 0.000000 0
0.000000 0.000000 0
0.000000 0.000000 0
0.000000 0.000002 0
-0.016156 0.012403 0
-0.029533 0.008462 0
-0.037567 0.004174 0
-0.041567 0.000570 0
-0.041297 -0.003676 0
-0.036502 -0.009016 0
-0.026776 -0.015375 0
-0.011955 -0.021256 0
0.007696 -0.024849 0
0.031759 -0.026193 0
0.058121 -0.024993 0
0.084400 -0.020515 0
0.107579 -0.013305 0
0.124599 -0.004696 0
0.132953 0.003273 0
0.131471 0.009289 0
0.122142 0.013618 0
0.107040 0.016757 0
0.088158 0.018747 0
0.067446 0.019440 0
0.046719 0.018724 0
0.027528 0.016672 0
0.011059 0.013174 0
-0.001686 0.007036 0
-0.007697 0.001218 0
-0.008346 -0.000948 0
-0.007481 -0.001230 0
-0.006351 -0.001079 0
-0.005266 -0.000841 0
-0.004370 -0.000571 0
-0.003762 -0.000283 0
-0.003513 0.000003 0
-0.003653 0.000266 0
-0.004157 0.000490 0
-0.004962 0.000652 0
-0.005972 0.000735 0
-0.007068 0.000735 0
-0.008133 0.000663 0
-0.009062 0.000536 0
-0.009770 0.000373 0
-0.010187 0.000182 0
-0.010248 -0.000038 0
-0.009882 -0.000302 0
-0.009048 -0.000603 0
-0.007756 -0.000907 0
-0.006080 -0.001160 0
-0.004166 -0.001281 0
-0.002249 -0.001159 0
-0.000687 -0.000666 0
0.000000 0.000000 0
0.000000 0.000006 0
-0.018484 0.029533 0
-0.034559 0.021411 0
-0.044874 0.012033 0
-0.050723 0.003729 0
-0.052249 -0.005066 0
-0.049972 -0.014522 0
-0.044284 -0.024548 0
-0.035540 -0.034473 0
-0.023018 -0.043715 0
-0.005854 -0.050426 0
0.015578 -0.052641 0
0.041050 -0.049458 0
0.068267 -0.040200 0
0.094394 -0.025374 0
0.114866 -0.006872 0
0.125595 0.010811 0
0.123808 0.024431 0
0.112608 0.033984 0
0.095336 0.039594 0
0.075111 0.041438 0
0.054429 0.039917 0
0.035047 0.035660 0
0.018115 0.029215 0
0.004057 0.018755 0
-0.006843 0.006660 0
-0.010560 -0.000217 0
-0.010815 -0.001995 0
-0.010079 -0.002214 0
-0.009065 -0.001981 0
-0.008069 -0.001504 0
-0.007298 -0.000857 0
-0.006909 -0.000109 0
-0.006999 0.000644 0
-0.007587 0.001309 0
-0.008614 0.001815 0
-0.009962 0.002106 0
-0.011471 0.002161 0
-0.012964 0.001994 0
-0.014264 0.001637 0
-0.015206 0.001125 0
-0.015646 0.000478 0
-0.015455 -0.000304 0
-0.014553 -0.001200 0
-0.012979 -0.002126 0
-0.010843 -0.002967 0
-0.008322 -0.003590 0
-0.005643 -0.003831 0
-0.003087 -0.003479 0
-0.001022 -0.002249 0
0.000000 0.000001 0
0.000000 0.000009 0
-0.017459 0.046962 0
-0.033664 0.034851 0
-0.044025 0.020337 0
-0.050307 0.007945 0
-0.053193 -0.004426 0
-0.053163 -0.016982 0
-0.050656 -0.029808 0
-0.045797 -0.042522 0
-0.038464 -0.054534 0
-0.028702 -0.064790 0
-0.015471 -0.071898 0
0.001844 -0.073204 0
0.023408 -0.066649 0
0.048173 -0.051295 0
0.072534 -0.027928 0
0.092761 0.000347 0
0.100097 0.026605 0
0.096512 0.045229 0
0.085633 0.056242 0
0.070769 0.060346 0
0.054444 0.058789 0
0.038393 0.052986 0
0.023782 0.044164 0
0.011183 0.031994 0
-0.000981 0.015835 0
-0.009222 0.003024 0
-0.011524 -0.001711 0
-0.011553 -0.002830 0
-0.010948 -0.002851 0
-0.010170 -0.002337 0
-0.009475 -0.001444 0
-0.009059 -0.000296 0
-0.009061 0.000945 0
-0.009547 0.002104 0
-0.010495 0.003027 0
-0.011801 0.003593 0
-0.013294 0.003737 0
-0.014761 0.003455 0
-0.015971 0.002779 0
-0.016704 0.001756 0
-0.016773 0.000431 0
-0.016046 -0.001131 0
-0.014576 -0.002778 0
-0.012510 -0.004313 0
-0.010045 -0.005563 0
-0.007399 -0.006360 0
-0.004797 -0.006516 0
-0.002487 -0.005780 0
-0.000758 -0.003753 0
0.000000 0.000002 0
0.000000 0.000013 0
-0.014988 0.063196 0
-0.030619 0.047977 0
-0.040755 0.028676 0
-0.047225 0.012897 0
-0.051066 -0.002210 0
-0.052697 -0.017060 0
-0.052636 -0.031914 0
-0.051015 -0.046665 0
-0.047800 -0.060810 0
-0.042873 -0.073420 0
-0.035844 -0.083187 0
-0.026367 -0.088337 0
-0.013125 -0.086528 0
0.004150 -0.074500 0
0.025507 -0.051461 0
0.048628 -0.016752 0
0.064150 0.020680 0
0.067546 0.048446 0
0.064900 0.065337 0
0.058170 0.072629 0
0.048923 0.072293 0
0.038460 0.066321 0
0.027882 0.056423 0
0.017927 0.043518 0
0.007741 0.027066 0
-0.003221 0.010326 0
-0.009486 0.000335 0
-0.011060 -0.002790 0
-0.011075 -0.003364 0
-0.010634 -0.002977 0
-0.010094 -0.001967 0
-0.009699 -0.000523 0
-0.009614 0.001131 0
-0.009934 0.002743 0
-0.010661 0.004069 0
-0.011711 0.004905 0
-0.012922 0.005122 0
-0.014070 0.004671 0
-0.014901 0.003579 0
-0.015179 0.001927 0
-0.014746 -0.000180 0
-0.013582 -0.002502 0
-0.011865 -0.004735 0
-0.009780 -0.006656 0
-0.007513 -0.008079 0
-0.005241 -0.008838 0
-0.003143 -0.008743 0
-0.001431 -0.007518 0
-0.000330 -0.004735 0
0.000000 0.000003 0
0.000000 0.000015 0
-0.011780 0.077581 0
-0.026580 0.060617 0
-0.036563 0.036943 0
-0.043028 0.018255 0
-0.047414 0.001045 0
-0.050222 -0.015412 0
-0.051986 -0.031491 0
-0.052983 -0.047358 0
-0.053333 -0.062676 0
-0.052980 -0.076746 0
-0.051578 -0.088404 0
-0.048625 -0.095923 0
-0.043373 -0.097166 0
-0.034871 -0.089926 0
-0.021374 -0.072406 0
-0.003601 -0.038296 0
0.018043 0.007685 0
0.031629 0.044478 0
0.037660 0.065620 0
0.039823 0.076322 0
0.038849 0.078498 0
0.035251 0.074027 0
0.029907 0.064698 0
0.023633 0.052136 0
0.016280 0.036982 0
0.006789 0.020251 0
-0.002459 0.006129 0
-0.007757 -0.001241 0
-0.009154 -0.003276 0
-0.009361 -0.003317 0
-0.009113 -0.002379 0
-0.008806 -0.000776 0
-0.008656 0.001180 0
-0.008784 0.003151 0
-0.009213 0.004805 0
-0.009875 0.005854 0
-0.010638 0.006096 0
-0.011308 0.005434 0
-0.011662 0.003888 0
-0.011499 0.001601 0
-0.010726 -0.001166 0
-0.009490 -0.004012 0
-0.007964 -0.006579 0
-0.006290 -0.008665 0
-0.004577 -0.010103 0
-0.002931 -0.010730 0
-0.001488 -0.010326 0
-0.000445 -0.008593 0
0.000030 -0.005184 0
0.000000 0.000003 0
0.000000 0.000017 0
-0.008213 0.089775 0
-0.021970 0.072759 0
-0.032015 0.045124 0
-0.038418 0.023748 0
-0.043128 0.004983 0
-0.046811 -0.012489 0
-0.049926 -0.029153 0
-0.052938 -0.045318 0
-0.056111 -0.060812 0
-0.059577 -0.075175 0
-0.063204 -0.087543 0
-0.066527 -0.096541 0
-0.068616 -0.100282 0
-0.068200 -0.096499 0
-0.063894 -0.082731 0
-0.054701 -0.056170 0
-0.034912 -0.014551 0
-0.009096 0.028830 0
0.006977 0.057143 0
0.018649 0.071440 0
0.025644 0.076864 0
0.029045 0.075263 0
0.029463 0.068042 0
0.027639 0.057144 0
0.023608 0.043910 0
0.017146 0.029066 0
0.008772 0.014880 0
0.000933 0.003906 0
-0.003882 -0.001759 0
-0.005875 -0.003019 0
-0.006291 -0.002523 0
-0.006287 -0.000980 0
-0.006181 0.001110 0
-0.006164 0.003300 0
-0.006286 0.005160 0
-0.006510 0.006330 0
-0.006755 0.006554 0
-0.006905 0.005695 0
-0.006824 0.003771 0
-0.006397 0.000991 0
-0.005596 -0.002189 0
-0.004643 -0.005263 0
-0.003639 -0.007935 0
-0.002634 -0.010043 0
-0.001650 -0.011438 0
-0.000734 -0.011927 0
0.000006 -0.011229 0
0.000401 -0.009035 0
0.000323 -0.005180 0
0.000000 0.000003 0
0.000000 0.000019 0
-0.004585 0.099550 0
-0.016940 0.084419 0
-0.027336 0.053391 0
-0.033813 0.029367 0
-0.038785 0.009438 0
-0.043183 -0.008613 0
-0.047355 -0.025364 0
-0.051955 -0.041174 0
-0.057321 -0.056036 0
-0.063728 -0.069653 0
-0.071263 -0.081454 0
-0.079692 -0.090511 0
-0.088263 -0.095493 0
-0.095563 -0.094649 0
-0.099448 -0.085905 0
-0.097039 -0.067280 0
-0.084378 -0.037919 0
-0.057265 0.002590 0
-0.026351 0.037874 0
-0.004858 0.057656 0
0.010399 0.068102 0
0.020266 0.070208 0
0.026467 0.066103 0
0.029625 0.057990 0
0.029356 0.047475 0
0.026114 0.035087 0
0.020425 0.022342 0
0.013470 0.011413 0
0.006419 0.003531 0
0.001640 -0.000908 0
-0.000908 -0.001967 0
-0.001879 -0.000887 0
-0.002143 0.001056 0
-0.002184 0.003257 0
-0.002114 0.005152 0
-0.001949 0.006322 0
-0.001706 0.006490 0
-0.001386 0.005503 0
-0.000978 0.003380 0
-0.000486 0.000373 0
0.000011 -0.002919 0
0.000419 -0.005969 0
0.000734 -0.008589 0
0.000975 -0.010653 0
0.001173 -0.012003 0
0.001327 -0.012386 0
0.001363 -0.011461 0
0.001147 -0.008910 0
0.000576 -0.004783 0
0.000000 0.000002 0
0.000000 0.000019 0
-0.001246 0.106715 0
-0.011552 0.095511 0
-0.022532 0.061996 0
-0.029371 0.035196 0
-0.034582 0.014353 0
-0.039613 -0.003918 0
-0.044746 -0.020381 0
-0.050702 -0.035352 0
-0.057845 -0.049038 0
-0.066466 -0.061233 0
-0.076736 -0.071579 0
-0.088581 -0.079541 0
-0.101494 -0.084411 0
-0.114304 -0.085315 0
-0.124923 -0.081256 0
-0.130178 -0.071239 0
-0.126021 -0.054324 0
-0.108622 -0.029198 0
-0.074282 0.004737 0
-0.037334 0.034689 0
-0.007647 0.051741 0
0.011134 0.059195 0
0.021474 0.058683 0
0.028983 0.054255 0
0.032604 0.047419 0
0.033053 0.037998 0
0.030709 0.027525 0
0.025832 0.017911 0
0.019425 0.010071 0
0.013098 0.004309 0
0.008243 0.000997 0
0.005368 0.000255 0
0.003802 0.001415 0
0.003094 0.003271 0
0.003030 0.004925 0
0.003398 0.005922 0
0.003974 0.005991 0
0.004580 0.004968 0
0.005094 0.002871 0
0.005417 0.000001 0
0.005451 -0.003095 0
0.005268 -0.005986 0
0.004916 -0.008491 0
0.004435 -0.010483 0
0.003873 -0.011789 0
0.003268 -0.012117 0
0.002608 -0.011049 0
0.001797 -0.008248 0
0.000773 -0.004033 0
0.000000 0.000002 0
0.000000 0.000020 0
0.001450 0.111103 0
-0.005949 0.105705 0
-0.017477 0.071209 0
-0.025085 0.041417 0
-0.030508 0.019680 0
-0.036078 0.001551 0
-0.042281 -0.014274 0
-0.049484 -0.028075 0
-0.058160 -0.040272 0
-0.068496 -0.050762 0
-0.080582 -0.059339 0
-0.094310 -0.065754 0
-0.109272 -0.069771 0
-0.124615 -0.071220 0
-0.138894 -0.070031 0
-0.149973 -0.066181 0
-0.155055 -0.059476 0
-0.150799 -0.049150 0
-0.133138 -0.033414 0
-0.098687 -0.008979 0
-0.057403 0.019634 0
-0.017046 0.041087 0
0.013450 0.048254 0
0.030444 0.046859 0
0.036658 0.043405 0
0.038814 0.036983 0
0.038939 0.029564 0
0.036121 0.022698 0
0.030832 0.016264 0
0.025015 0.010274 0
0.019676 0.005764 0
0.015169 0.003554 0
0.011747 0.003330 0
0.009679 0.004029 0
0.008953 0.004848 0
0.009138 0.005378 0
0.009716 0.005308 0
0.010290 0.004383 0
0.010628 0.002543 0
0.010624 0.000016 0
0.010267 -0.002770 0
0.009633 -0.005434 0
0.008751 -0.007756 0
0.007646 -0.009610 0
0.006382 -0.010835 0
0.005044 -0.011122 0
0.003692 -0.009990 0
0.002301 -0.007075 0
0.000889 -0.002986 0
0.000000 0.000001 0
0.000000 0.000020 0
0.003311 0.112664 0
-0.000383 0.114437 0
-0.012025 0.081132 0
-0.020863 0.048227 0
-0.026550 0.025347 0
-0.032581 0.007855 0
-0.039931 -0.006975 0
-0.048330 -0.019472 0
-0.058354 -0.030027 0
-0.070042 -0.038812 0
-0.083317 -0.045765 0
-0.097910 -0.050851 0
-0.113356 -0.054108 0
-0.128977 -0.055693 0
-0.143900 -0.055897 0
-0.157092 -0.055078 0
-0.167370 -0.053499 0
-0.173278 -0.051115 0
-0.172748 -0.047375 0
-0.162560 -0.041045 0
-0.137564 -0.029900 0
-0.099528 -0.011658 0
-0.055440 0.011193 0
-0.015607 0.031047 0
0.017251 0.039050 0
0.039595 0.035717 0
0.049799 0.030218 0
0.050278 0.026017 0
0.043918 0.021177 0
0.037226 0.015466 0
0.031177 0.010842 0
0.025534 0.008184 0
0.020651 0.006905 0
0.017259 0.006065 0
0.015594 0.005467 0
0.015120 0.005160 0
0.015207 0.004840 0
0.015366 0.004055 0
0.015320 0.002536 0
0.014983 0.000363 0
0.014346 -0.002104 0
0.013393 -0.004470 0
0.012082 -0.006503 0
0.010431 -0.008113 0
0.008526 -0.009187 0
0.006508 -0.009427 0
0.004506 -0.008306 0
0.002591 -0.005445 0
0.000890 -0.001732 0
0.000000 0.000001 0
0.000000 0.000020 0
0.004471 0.111485 0
0.004461 0.121041 0
-0.005974 0.091689 0
-0.016533 0.055942 0
-0.022782 0.031398 0
-0.029057 0.014933 0
-0.037211 0.001474 0
-0.047042 -0.009653 0
-0.058250 -0.018560 0
-0.070967 -0.025799 0
-0.084973 -0.031472 0
-0.099852 -0.035716 0
-0.115085 -0.038704 0
-0.130095 -0.040676 0
-0.144301 -0.041916 0
-0.157218 -0.042710 0
-0.168482 -0.043290 0
-0.177789 -0.043772 0
-0.184712 -0.044131 0
-0.188431 -0.044163 0
-0.187346 -0.043397 0
-0.178472 -0.041037 0
-0.157997 -0.035668 0
-0.125582 -0.025830 0
-0.085298 -0.011797 0
-0.046053 0.004435 0
-0.012360 0.018881 0
0.014927 0.028578 0
0.034533 0.029316 0
0.043230 0.023015 0
0.044511 0.017457 0
0.040414 0.014080 0
0.033470 0.011605 0
0.027283 0.009086 0
0.023658 0.006987 0
0.021725 0.005765 0
0.020684 0.005062 0
0.019992 0.004270 0
0.019331 0.002926 0
0.018588 0.000990 0
0.017654 -0.001180 0
0.016374 -0.003170 0
0.014643 -0.004794 0
0.012487 -0.006054 0
0.010027 -0.006913 0
0.007437 -0.007101 0
0.004900 -0.006072 0
0.002587 -0.003458 0
0.000752 -0.000395 0
0.000000 0.000000 0
0.000000 0.000020 0
0.005145 0.108202 0
0.007861 0.124882 0
0.000640 0.102126 0
-0.011831 0.065035 0
-0.019265 0.037871 0
-0.025621 0.022283 0
-0.034133 0.011010 0
-0.044957 0.001567 0
-0.057352 -0.006102 0
-0.070944 -0.012089 0
-0.085331 -0.016880 0
-0.100135 -0.020739 0
-0.114909 -0.023865 0
-0.129221 -0.026477 0
-0.142677 -0.028774 0
-0.155006 -0.030896 0
-0.166063 -0.032928 0
-0.175777 -0.034886 0
-0.184117 -0.036733 0
-0.191030 -0.038411 0
-0.196345 -0.039859 0
-0.199631 -0.041007 0
-0.200022 -0.041698 0
-0.195775 -0.041651 0
-0.184652 -0.040478 0
-0.165256 -0.037221 0
-0.137527 -0.030762 0
-0.104289 -0.020876 0
-0.068660 -0.007126 0
-0.037959 0.005488 0
-0.013431 0.013659 0
0.005240 0.019226 0
0.018428 0.020036 0
0.025994 0.015877 0
0.028315 0.011025 0
0.028095 0.008133 0
0.026514 0.006573 0
0.024435 0.005408 0
0.022463 0.003940 0
0.020852 0.002040 0
0.019430 0.000110 0
0.017762 -0.001459 0
0.015642 -0.002616 0
0.013106 -0.003497 0
0.010304 -0.004137 0
0.007406 -0.004300 0
0.004606 -0.003456 0
0.002159 -0.001297 0
0.000488 0.000856 0
0.000000 -0.000001 0
0.000000 0.000020 0
0.005446 0.103624 0
0.009891 0.125546 0
0.006661 0.111381 0
-0.006244 0.075848 0
-0.015864 0.045188 0
-0.022570 0.029801 0
-0.031308 0.020811 0
-0.042321 0.013567 0
-0.055136 0.007427 0
-0.069035 0.002179 0
-0.083552 -0.002281 0
-0.098262 -0.006138 0
-0.112707 -0.009618 0
-0.126500 -0.012906 0
-0.139440 -0.016130 0
-0.151459 -0.019325 0
-0.162532 -0.022519 0
-0.172584 -0.025717 0
-0.181524 -0.028878 0
-0.189238 -0.031934 0
-0.195596 -0.034796 0
-0.200490 -0.037360 0
-0.203845 -0.039523 0
-0.205560 -0.041200 0
-0.205482 -0.042316 0
-0.203337 -0.042690 0
-0.198221 -0.042086 0
-0.188871 -0.040289 0
-0.174162 -0.037014 0
-0.152306 -0.032213 0
-0.127023 -0.025742 0
-0.099801 -0.017779 0
-0.072471 -0.009150 0
-0.048498 -0.000801 0
-0.029784 0.004886 0
-0.015576 0.007566 0
-0.004846 0.008722 0
0.003085 0.008322 0
0.008545 0.006509 0
0.011659 0.004023 0
0.012717 0.001911 0
0.012337 0.000618 0
0.011122 -0.000137 0
0.009408 -0.000717 0
0.007365 -0.001213 0
0.005111 -0.001403 0
0.002842 -0.000826 0
0.000973 0.000660 0
0.000069 0.001764 0
0.000000 -0.000001 0
0.000000 0.000020 0
0.005486 0.098311 0
0.010909 0.123666 0
0.010843 0.118261 0
0.000389 0.087561 0
-0.012251 0.054197 0
-0.019893 0.037727 0
-0.028830 0.030761 0
-0.039898 0.025396 0
-0.052354 0.020611 0
-0.065745 0.016327 0
-0.079663 0.012348 0
-0.093691 0.008416 0
-0.107512 0.004373 0
-0.120903 0.000257 0
-0.133743 -0.003814 0
-0.145889 -0.007805 0
-0.157201 -0.011803 0
-0.167654 -0.015893 0
-0.177251 -0.020079 0
-0.185896 -0.024339 0
-0.193415 -0.028606 0
-0.199615 -0.032758 0
-0.204310 -0.036628 0
-0.207357 -0.040014 0
-0.208694 -0.042701 0
-0.208328 -0.044481 0
-0.206251 -0.045228 0
-0.202441 -0.044935 0
-0.196823 -0.043691 0
-0.189174 -0.041651 0
-0.179375 -0.038847 0
-0.166984 -0.035327 0
-0.151873 -0.031266 0
-0.134153 -0.026810 0
-0.114398 -0.021898 0
-0.094921 -0.016804 0
-0.076445 -0.012088 0
-0.059642 -0.007983 0
-0.045209 -0.004634 0
-0.033617 -0.002131 0
-0.024769 -0.000568 0
-0.018031 0.000136 0
-0.012847 0.000313 0
-0.008893 0.000259 0
-0.006014 0.000161 0
-0.004081 0.000223 0
-0.002864 0.000681 0
-0.001906 0.001476 0
-0.000799 0.001829 0
0.000000 -0.000003 0
0.000000 0.000020 0
0.005342 0.092715 0
0.011165 0.120189 0
0.013212 0.121902 0
0.006632 0.098942 0
-0.007819 0.065469 0
-0.017275 0.046380 0
-0.026459 0.040816 0
-0.037485 0.037092 0
-0.049583 0.033274 0
-0.062238 0.029488 0
-0.075101 0.025665 0
-0.087962 0.021711 0
-0.100732 0.017595 0
-0.113374 0.013325 0
-0.125790 0.008856 0
-0.137830 0.004133 0
-0.149344 -0.000754 0
-0.160226 -0.005666 0
-0.170320 -0.010635 0
-0.179553 -0.015770 0
-0.187945 -0.021077 0
-0.195362 -0.026465 0
-0.201616 -0.031779 0
-0.206487 -0.036817 0
-0.209745 -0.041345 0
-0.211165 -0.045132 0
-0.210546 -0.047973 0
-0.207781 -0.049717 0
-0.202898 -0.050280 0
-0.196078 -0.049661 0
-0.187645 -0.047931 0
-0.177860 -0.045281 0
-0.167030 -0.041981 0
-0.155423 -0.038277 0
-0.143258 -0.034346 0
-0.130469 -0.030386 0
-0.117245 -0.026556 0
-0.103822 -0.022915 0
-0.090440 -0.019516 0
-0.077356 -0.016416 0
-0.064842 -0.013676 0
-0.053231 -0.011304 0
-0.042744 -0.009276 0
-0.033435 -0.007550 0
-0.025291 -0.006025 0
-0.018262 -0.004553 0
-0.012226 -0.003001 0
-0.006994 -0.001405 0
-0.002609 -0.000141 0
0.000000 -0.000008 0
0.000000 0.000020 0
0.005075 0.087146 0
0.010907 0.115797 0
0.014234 0.122795 0
0.010964 0.108591 0
-0.002354 0.078104 0
-0.014358 0.056368 0
-0.023945 0.050972 0
-0.034807 0.048519 0
-0.046454 0.045365 0
-0.058415 0.041846 0
-0.070441 0.038071 0
-0.082401 0.034046 0
-0.094225 0.029786 0
-0.105870 0.025315 0
-0.117316 0.020642 0
-0.128591 0.015750 0
-0.139702 0.010594 0
-0.150514 0.005083 0
-0.160815 -0.000752 0
-0.170453 -0.006713 0
-0.179297 -0.012797 0
-0.187366 -0.019087 0
-0.194595 -0.025503 0
-0.200775 -0.031885 0
-0.205643 -0.038023 0
-0.208919 -0.043680 0
-0.210322 -0.048612 0
-0.209620 -0.052584 0
-0.206668 -0.055394 0
-0.201438 -0.056904 0
-0.194041 -0.057064 0
-0.184706 -0.055942 0
-0.173811 -0.053704 0
-0.161813 -0.050581 0
-0.149165 -0.046852 0
-0.136234 -0.042817 0
-0.123347 -0.038735 0
-0.110709 -0.034788 0
-0.098430 -0.031099 0
-0.086560 -0.027730 0
-0.075129 -0.024693 0
-0.064178 -0.021961 0
-0.053734 -0.019483 0
-0.043839 -0.017194 0
-0.034538 -0.015012 0
-0.025852 -0.012842 0
-0.017780 -0.010587 0
-0.010364 -0.008140 0
-0.003954 -0.005165 0
0.000000 -0.000012 0
0.000000 0.000020 0
0.004728 0.081808 0
0.010315 0.111030 0
0.014262 0.121845 0
0.013319 0.115529 0
0.003100 0.090791 0
-0.010919 0.067970 0
-0.021149 0.061265 0
-0.031789 0.059602 0
-0.042957 0.056883 0
-0.054265 0.053475 0
-0.065532 0.049651 0
-0.076665 0.045495 0
-0.087622 0.041064 0
-0.098389 0.036416 0
-0.108970 0.031578 0
-0.119371 0.026519 0
-0.129583 0.021169 0
-0.139590 0.015447 0
-0.149403 0.009305 0
-0.158919 0.002712 0
-0.167909 -0.004165 0
-0.176241 -0.011166 0
-0.183890 -0.018370 0
-0.190822 -0.025769 0
-0.196803 -0.033201 0
-0.201548 -0.040454 0
-0.204747 -0.047271 0
-0.206093 -0.053371 0
-0.205318 -0.058462 0
-0.202241 -0.062288 0
-0.196804 -0.064663 0
-0.189097 -0.065510 0
-0.179372 -0.064874 0
-0.168005 -0.062923 0
-0.155441 -0.059925 0
-0.142145 -0.056204 0
-0.128558 -0.052081 0
-0.115038 -0.047831 0
-0.101849 -0.043665 0
-0.089163 -0.039717 0
-0.077079 -0.036058 0
-0.065642 -0.032699 0
-0.054855 -0.029614 0
-0.044707 -0.026745 0
-0.035176 -0.024013 0
-0.026245 -0.021311 0
-0.017924 -0.018488 0
-0.010324 -0.015232 0
-0.003865 -0.010506 0
0.000000 -0.000010 0
0.000000 0.000019 0
0.004336 0.076830 0
0.009528 0.106264 0
0.013640 0.119791 0
0.014215 0.119753 0
0.007290 0.102343 0
-0.006905 0.080617 0
-0.017995 0.071842 0
-0.028435 0.070328 0
-0.039119 0.067840 0
-0.049807 0.064421 0
-0.060369 0.060471 0
-0.070746 0.056137 0
-0.080912 0.051509 0
-0.090857 0.046663 0
-0.100573 0.041625 0
-0.110051 0.036363 0
-0.119291 0.030813 0
-0.128307 0.024904 0
-0.137128 0.018578 0
-0.145777 0.011792 0
-0.154270 0.004525 0
-0.162426 -0.003105 0
-0.170071 -0.010921 0
-0.177201 -0.018972 0
-0.183778 -0.027297 0