# vtk DataFile Version 2.0
generated by CFD-lab course output (written by Tobias Neckel) 
ASCII

DATASET STRUCTURED_GRID
DIMENSIONS  51 51 1 
POINTS 2601 float

0.000000 0.000000 0
0.020000 0.000000 0
0.040000 0.000000 0
0.060000 0.000000 0
0.080000 0.000000 0
0.100000 0.000000 0
0.120000 0.000000 0
0.140000 0.000000 0
0.160000 0.000000 0
0.180000 0.000000 0
0.200000 0.000000 0
0.220000 0.000000 0
0.240000 0.000000 0
0.260000 0.000000 0
0.280000 0.000000 0
0.300000 0.000000 0
0.320000 0.000000 0
0.340000 0.000000 0
0.360000 0.000000 0
0.380000 0.000000 0
0.400000 0.000000 0
0.420000 0.000000 0
0.440000 0.000000 0
0.460000 0.000000 0
0.480000 0.000000 0
0.500000 0.000000 0
0.520000 0.000000 0
0.540000 0.000000 0
0.560000 0.000000 0
0.580000 0.000000 0
0.600000 0.000000 0
0.620000 0.000000 0
0.640000 0.000000 0
0.660000 0.000000 0
0.680000 0.000000 0
0.700000 0.000000 0
0.720000 0.000000 0
0.740000 0.000000 0
0.760000 0.000000 0
0.780000 0.000000 0
0.800000 0.000000 0
0.820000 0.000000 0
0.840000 0.000000 0
0.860000 0.000000 0
0.880000 0.000000 0
0.900000 0.000000 0
0.920000 0.000000 0
0.940000 0.000000 0
0.960000 0.000000 0
0.980000 0.000000 0
1.000000 0.000000 0
0.000000 0.020000 0
0.020000 0.020000 0
0.040000 0.020000 0
0.060000 0.020000 0
0.080000 0.020000 0
0.100000 0.020000 0
0.120000 0.020000 0
0.140000 0.020000 0
0.160000 0.020000 0
0.180000 0.020000 0
0.200000 0.020000 0
0.220000 0.020000 0
0.240000 0.020000 0
0.260000 0.020000 0
0.280000 0.020000 0
0.300000 0.020000 0
0.320000 0.020000 0
0.340000 0.020000 0
0.360000 0.020000 0
0.380000 0.020000 0
0.400000 0.020000 0
0.420000 0.020000 0
0.440000 0.020000 0
0.460000 0.020000 0
0.480000 0.020000 0
0.500000 0.020000 0
0.520000 0.020000 0
0.540000 0.020000 0
0.560000 0.020000 0
0.580000 0.020000 0
0.600000 0.020000 0
0.620000 0.020000 0
0.640000 0.020000 0
0.660000 0.020000 0
0.680000 0.020000 0
0.700000 0.020000 0
0.720000 0.020000 0
0.740000 0.020000 0
0.760000 0.020000 0
0.780000 0.020000 0
0.800000 0.020000 0
0.820000 0.020000 0
0.840000 0.020000 0
0.860000 0.020000 0
0.880000 0.020000 0
0.900000 0.020000 0
0.920000 0.020000 0
0.940000 0.020000 0
0.960000 0.020000 0
0.980000 0.020000 0
1.000000 0.020000 0
0.000000 0.040000 0
0.020000 0.040000 0
0.040000 0.040000 0
0.060000 0.040000 0
0.080000 0.040000 0
0.100000 0.040000 0
0.120000 0.040000 0
0.140000 0.040000 0
0.160000 0.040000 0
0.180000 0.040000 0
0.200000 0.040000 0
0.220000 0.040000 0
0.240000 0.040000 0
0.260000 0.040000 0
0.280000 0.040000 0
0.300000 0.040000 0
0.320000 0.040000 0
0.340000 0.040000 0
0.360000 0.040000 0
0.380000 0.040000 0
0.400000 0.040000 0
0.420000 0.040000 0
0.440000 0.040000 0
0.460000 0.040000 0
0.480000 0.040000 0
0.500000 0.040000 0
0.520000 0.040000 0
0.540000 0.040000 0
0.560000 0.040000 0
0.580000 0.040000 0
0.600000 0.040000 0
0.620000 0.040000 0
0.640000 0.040000 0
0.660000 0.040000 0
0.680000 0.040000 0
0.700000 0.040000 0
0.720000 0.040000 0
0.740000 0.040000 0
0.760000 0.040000 0
0.780000 0.040000 0
0.800000 0.040000 0
0.820000 0.040000 0
0.840000 0.040000 0
0.860000 0.040000 0
0.880000 0.040000 0
0.900000 0.040000 0
0.920000 0.040000 0
0.940000 0.040000 0
0.960000 0.040000 0
0.980000 0.040000 0
1.000000 0.040000 0
0.000000 0.060000 0
0.020000 0.060000 0
0.040000 0.060000 0
0.060000 0.060000 0
0.080000 0.060000 0
0.100000 0.060000 0
0.120000 0.060000 0
0.140000 0.060000 0
0.160000 0.060000 0
0.180000 0.060000 0
0.200000 0.060000 0
0.220000 0.060000 0
0.240000 0.060000 0
0.260000 0.060000 0
0.280000 0.060000 0
0.300000 0.060000 0
0.320000 0.060000 0
0.340000 0.060000 0
0.360000 0.060000 0
0.380000 0.060000 0
0.400000 0.060000 0
0.420000 0.060000 0
0.440000 0.060000 0
0.460000 0.060000 0
0.480000 0.060000 0
0.500000 0.060000 0
0.520000 0.060000 0
0.540000 0.060000 0
0.560000 0.060000 0
0.580000 0.060000 0
0.600000 0.060000 0
0.620000 0.060000 0
0.640000 0.060000 0
0.660000 0.060000 0
0.680000 0.060000 0
0.700000 0.060000 0
0.720000 0.060000 0
0.740000 0.060000 0
0.760000 0.060000 0
0.780000 0.060000 0
0.800000 0.060000 0
0.820000 0.060000 0
0.840000 0.060000 0
0.860000 0.060000 0
0.880000 0.060000 0
0.900000 0.060000 0
0.920000 0.060000 0
0.940000 0.060000 0
0.960000 0.060000 0
0.980000 0.060000 0
1.000000 0.060000 0
0.000000 0.080000 0
0.020000 0.080000 0
0.040000 0.080000 0
0.060000 0.080000 0
0.080000 0.080000 0
0.100000 0.080000 0
0.120000 0.080000 0
0.140000 0.080000 0
0.160000 0.080000 0
0.180000 0.080000 0
0.200000 0.080000 0
0.220000 0.080000 0
0.240000 0.080000 0
0.260000 0.080000 0
0.280000 0.080000 0
0.300000 0.080000 0
0.320000 0.080000 0
0.340000 0.080000 0
0.360000 0.080000 0
0.380000 0.080000 0
0.400000 0.080000 0
0.420000 0.080000 0
0.440000 0.080000 0
0.460000 0.080000 0
0.480000 0.080000 0
0.500000 0.080000 0
0.520000 0.080000 0
0.540000 0.080000 0
0.560000 0.080000 0
0.580000 0.080000 0
0.600000 0.080000 0
0.620000 0.080000 0
0.640000 0.080000 0
0.660000 0.080000 0
0.680000 0.080000 0
0.700000 0.080000 0
0.720000 0.080000 0
0.740000 0.080000 0
0.760000 0.080000 0
0.780000 0.080000 0
0.800000 0.080000 0
0.820000 0.080000 0
0.840000 0.080000 0
0.860000 0.080000 0
0.880000 0.080000 0
0.900000 0.080000 0
0.920000 0.080000 0
0.940000 0.080000 0
0.960000 0.080000 0
0.980000 0.080000 0
1.000000 0.080000 0
0.000000 0.100000 0
0.020000 0.100000 0
0.040000 0.100000 0
0.060000 0.100000 0
0.080000 0.100000 0
0.100000 0.100000 0
0.120000 0.100000 0
0.140000 0.100000 0
0.160000 0.100000 0
0.180000 0.100000 0
0.200000 0.100000 0
0.220000 0.100000 0
0.240000 0.100000 0
0.260000 0.100000 0
0.280000 0.100000 0
0.300000 0.100000 0
0.320000 0.100000 0
0.340000 0.100000 0
0.360000 0.100000 0
0.380000 0.100000 0
0.400000 0.100000 0
0.420000 0.100000 0
0.440000 0.100000 0
0.460000 0.100000 0
0.480000 0.100000 0
0.500000 0.100000 0
0.520000 0.100000 0
0.540000 0.100000 0
0.560000 0.100000 0
0.580000 0.100000 0
0.600000 0.100000 0
0.620000 0.100000 0
0.640000 0.100000 0
0.660000 0.100000 0
0.680000 0.100000 0
0.700000 0.100000 0
0.720000 0.100000 0
0.740000 0.100000 0
0.760000 0.100000 0
0.780000 0.100000 0
0.800000 0.100000 0
0.820000 0.100000 0
0.840000 0.100000 0
0.860000 0.100000 0
0.880000 0.100000 0
0.900000 0.100000 0
0.920000 0.100000 0
0.940000 0.100000 0
0.960000 0.100000 0
0.980000 0.100000 0
1.000000 0.100000 0
0.000000 0.120000 0
0.020000 0.120000 0
0.040000 0.120000 0
0.060000 0.120000 0
0.080000 0.120000 0
0.100000 0.120000 0
0.120000 0.120000 0
0.140000 0.120000 0
0.160000 0.120000 0
0.180000 0.120000 0
0.200000 0.120000 0
0.220000 0.120000 0
0.240000 0.120000 0
0.260000 0.120000 0
0.280000 0.120000 0
0.300000 0.120000 0
0.320000 0.120000 0
0.340000 0.120000 0
0.360000 0.120000 0
0.380000 0.120000 0
0.400000 0.120000 0
0.420000 0.120000 0
0.440000 0.120000 0
0.460000 0.120000 0
0.480000 0.120000 0
0.500000 0.120000 0
0.520000 0.120000 0
0.540000 0.120000 0
0.560000 0.120000 0
0.580000 0.120000 0
0.600000 0.120000 0
0.620000 0.120000 0
0.640000 0.120000 0
0.660000 0.120000 0
0.680000 0.120000 0
0.700000 0.120000 0
0.720000 0.120000 0
0.740000 0.120000 0
0.760000 0.120000 0
0.780000 0.120000 0
0.800000 0.120000 0
0.820000 0.120000 0
0.840000 0.120000 0
0.860000 0.120000 0
0.880000 0.120000 0
0.900000 0.120000 0
0.920000 0.120000 0
0.940000 0.120000 0
0.960000 0.120000 0
0.980000 0.120000 0
1.000000 0.120000 0
0.000000 0.140000 0
0.020000 0.140000 0
0.040000 0.140000 0
0.060000 0.140000 0
0.080000 0.140000 0
0.100000 0.140000 0
0.120000 0.140000 0
0.140000 0.140000 0
0.160000 0.140000 0
0.180000 0.140000 0
0.200000 0.140000 0
0.220000 0.140000 0
0.240000 0.140000 0
0.260000 0.140000 0
0.280000 0.140000 0
0.300000 0.140000 0
0.320000 0.140000 0
0.340000 0.140000 0
0.360000 0.140000 0
0.380000 0.140000 0
0.400000 0.140000 0
0.420000 0.140000 0
0.440000 0.140000 0
0.460000 0.140000 0
0.480000 0.140000 0
0.500000 0.140000 0
0.520000 0.140000 0
0.540000 0.140000 0
0.560000 0.140000 0
0.580000 0.140000 0
0.600000 0.140000 0
0.620000 0.140000 0
0.640000 0.140000 0
0.660000 0.140000 0
0.680000 0.140000 0
0.700000 0.140000 0
0.720000 0.140000 0
0.740000 0.140000 0
0.760000 0.140000 0
0.780000 0.140000 0
0.800000 0.140000 0
0.820000 0.140000 0
0.840000 0.140000 0
0.860000 0.140000 0
0.880000 0.140000 0
0.900000 0.140000 0
0.920000 0.140000 0
0.940000 0.140000 0
0.960000 0.140000 0
0.980000 0.140000 0
1.000000 0.140000 0
0.000000 0.160000 0
0.020000 0.160000 0
0.040000 0.160000 0
0.060000 0.160000 0
0.080000 0.160000 0
0.100000 0.160000 0
0.120000 0.160000 0
0.140000 0.160000 0
0.160000 0.160000 0
0.180000 0.160000 0
0.200000 0.160000 0
0.220000 0.160000 0
0.240000 0.160000 0
0.260000 0.160000 0
0.280000 0.160000 0
0.300000 0.160000 0
0.320000 0.160000 0
0.340000 0.160000 0
0.360000 0.160000 0
0.380000 0.160000 0
0.400000 0.160000 0
0.420000 0.160000 0
0.440000 0.160000 0
0.460000 0.160000 0
0.480000 0.160000 0
0.500000 0.160000 0
0.520000 0.160000 0
0.540000 0.160000 0
0.560000 0.160000 0
0.580000 0.160000 0
0.600000 0.160000 0
0.620000 0.160000 0
0.640000 0.160000 0
0.660000 0.160000 0
0.680000 0.160000 0
0.700000 0.160000 0
0.720000 0.160000 0
0.740000 0.160000 0
0.760000 0.160000 0
0.780000 0.160000 0
0.800000 0.160000 0
0.820000 0.160000 0
0.840000 0.160000 0
0.860000 0.160000 0
0.880000 0.160000 0
0.900000 0.160000 0
0.920000 0.160000 0
0.940000 0.160000 0
0.960000 0.160000 0
0.980000 0.160000 0
1.000000 0.160000 0
0.000000 0.180000 0
0.020000 0.180000 0
0.040000 0.180000 0
0.060000 0.180000 0
0.080000 0.180000 0
0.100000 0.180000 0
0.120000 0.180000 0
0.140000 0.180000 0
0.160000 0.180000 0
0.180000 0.180000 0
0.200000 0.180000 0
0.220000 0.180000 0
0.240000 0.180000 0
0.260000 0.180000 0
0.280000 0.180000 0
0.300000 0.180000 0
0.320000 0.180000 0
0.340000 0.180000 0
0.360000 0.180000 0
0.380000 0.180000 0
0.400000 0.180000 0
0.420000 0.180000 0
0.440000 0.180000 0
0.460000 0.180000 0
0.480000 0.180000 0
0.500000 0.180000 0
0.520000 0.180000 0
0.540000 0.180000 0
0.560000 0.180000 0
0.580000 0.180000 0
0.600000 0.180000 0
0.620000 0.180000 0
[...]
POINT_DATA 2601 

VECTORS velocity float
0.000000 0.000000 0
-0.000004 0.000000 0
-0.000009 0.000000 0
-0.000015 0.000000 0
-0.000020 0.000000 0
-0.000028 0.000000 0
-0.000037 0.000000 0
-0.000047 0.000000 0
-0.000051 0.000000 0
-0.000048 0.000000 0
-0.000043 0.000000 0
-0.000033 0.000000 0
-0.000020 0.000000 0
-0.000005 0.000000 0
0.000007 0.000000 0
0.000015 0.000000 0
0.000018 0.000000 0
0.000016 0.000000 0
0.000012 0.000000 0
0.000007 0.000000 0
0.000002 0.000000 0
-0.000002 0.000000 0
-0.000005 0.000000 0
-0.000007 0.000000 0
-0.000005 0.000000 0
0.000002 0.000000 0
0.000005 0.000000 0
0.000005 0.000000 0
0.000005 0.000000 0
0.000004 0.000000 0
0.000004 0.000000 0
0.000004 0.000000 0
0.000004 0.000000 0
0.000004 0.000000 0
0.000005 0.000000 0
0.000005 0.000000 0
0.000005 0.000000 0
0.000005 0.000000 0
0.000005 0.000000 0
0.000005 0.000000 0
0.000005 0.000000 0
0.000005 0.000000 0
0.000005 0.000000 0
0.000005 0.000000 0
0.000004 0.000000 0
0.000004 0.000000 0
0.000003 0.000000 0
0.000002 0.000000 0
0.000001 0.000000 0
0.000000 0.000000 0
0.000000 0.000000 0
0.000000 0.000004 0
-0.015439 0.011615 0
-0.027794 0.007419 0
-0.034599 0.002911 0
-0.037166 -0.001002 0
-0.035353 -0.005606 0
-0.028915 -0.011144 0
-0.017572 -0.017047 0
-0.001345 -0.021749 0
0.019382 -0.024276 0
0.043602 -0.024489 0
0.068881 -0.022037 0
0.092970 -0.016926 0
0.113103 -0.009816 0
0.126678 -0.002100 0
0.132110 0.004508 0
0.128937 0.009363 0
0.119148 0.012952 0
0.104466 0.015630 0
0.086486 0.017439 0
0.066768 0.018246 0
0.046820 0.017897 0
0.028016 0.016326 0
0.011541 0.013329 0
-0.001502 0.007607 0
-0.008197 0.001663 0
-0.009142 -0.000950 0
-0.008180 -0.001400 0
-0.006919 -0.001220 0
-0.005767 -0.000915 0
-0.004873 -0.000585 0
-0.004324 -0.000251 0
-0.004174 0.000070 0
-0.004437 0.000356 0
-0.005074 0.000588 0
-0.006008 0.000745 0
-0.007130 0.000813 0
-0.008317 0.000794 0
-0.009449 0.000703 0
-0.010423 0.000562 0
-0.011156 0.000386 0
-0.011577 0.000182 0
-0.011618 -0.000053 0
-0.011202 -0.000337 0
-0.010279 -0.000666 0
-0.008852 -0.001007 0
-0.006990 -0.001303 0
-0.004841 -0.001463 0
-0.002655 -0.001351 0
-0.000834 -0.000803 0
0.000000 0.000000 0
0.000000 0.000008 0
-0.017675 0.027793 0
-0.032730 0.019159 0
-0.041921 0.009371 0
-0.046573 0.000753 0
-0.046957 -0.008252 0
-0.043652 -0.017781 0
-0.036927 -0.027570 0
-0.026778 -0.036955 0
-0.012438 -0.044948 0
0.006331 -0.049500 0
0.029378 -0.049368 0
0.055017 -0.044223 0
0.081159 -0.033709 0
0.104379 -0.019008 0
0.121193 -0.002260 0
0.128141 0.012961 0
0.124556 0.024470 0
0.112821 0.032662 0
0.095634 0.037698 0
0.075646 0.039665 0
0.055083 0.038751 0
0.035624 0.035278 0
0.018446 0.029518 0
0.004147 0.019738 0
-0.007083 0.007639 0
-0.011223 -0.000017 0
-0.011528 -0.002223 0
-0.010731 -0.002413 0
-0.009709 -0.002046 0
-0.008786 -0.001442 0
-0.008153 -0.000698 0
-0.007943 0.000113 0
-0.008230 0.000900 0
-0.009013 0.001571 0
-0.010221 0.002057 0
-0.011727 0.002309 0
-0.013364 0.002319 0
-0.014950 0.002106 0
-0.016308 0.001707 0
-0.017272 0.001154 0
-0.017691 0.000463 0
-0.017427 -0.000375 0
-0.016401 -0.001339 0
-0.014645 -0.002350 0
-0.012274 -0.003288 0
-0.009471 -0.004011 0
-0.006474 -0.004335 0
-0.003585 -0.004007 0
-0.001209 -0.002655 0
0.000000 0.000002 0
0.000000 0.000013 0
-0.016701 0.044344 0
-0.032060 0.031665 0
-0.041655 0.016754 0
-0.047194 0.004033 0
-0.049294 -0.008527 0
-0.048483 -0.021174 0
-0.045031 -0.033921 0
-0.038979 -0.046238 0
-0.030259 -0.057386 0
-0.018607 -0.066306 0
-0.002984 -0.070723 0
0.016553 -0.068708 0
0.039534 -0.059179 0
0.063482 -0.042134 0
0.085581 -0.019255 0
0.101320 0.006000 0
0.105523 0.028272 0
0.100299 0.044552 0
0.088392 0.054614 0
0.072728 0.058797 0
0.055678 0.057919 0
0.038984 0.052962 0
0.023834 0.044806 0
0.010851 0.033136 0
-0.001339 0.017033 0
-0.009766 0.003496 0
-0.012227 -0.001892 0
-0.012237 -0.003039 0
-0.011628 -0.002860 0
-0.010931 -0.002141 0
-0.010397 -0.001094 0
-0.010196 0.000147 0
-0.010436 0.001426 0
-0.011157 0.002579 0
-0.012323 0.003459 0
-0.013819 0.003955 0
-0.015463 0.004017 0
-0.017034 0.003647 0
-0.018292 0.002883 0
-0.019012 0.001769 0
-0.019002 0.000338 0
-0.018125 -0.001344 0
-0.016443 -0.003119 0
-0.014112 -0.004793 0
-0.011345 -0.006181 0
-0.008380 -0.007103 0
-0.005462 -0.007349 0
-0.002856 -0.006617 0
-0.000881 -0.004388 0
0.000000 0.000003 0
0.000000 0.000017 0
-0.014371 0.059852 0
-0.029332 0.044113 0
-0.038961 0.024505 0
-0.044976 0.008392 0
-0.048315 -0.006962 0
-0.049360 -0.022045 0
-0.048503 -0.037074 0
-0.045792 -0.051727 0
-0.041144 -0.065321 0
-0.034386 -0.076775 0
-0.025322 -0.084529 0
-0.012973 -0.086742 0
0.002971 -0.080639 0
0.022537 -0.065055 0
0.044343 -0.040099 0
0.063554 -0.006981 0
0.073910 0.025491 0
0.075291 0.049792 0
0.070457 0.065268 0
0.061773 0.072378 0
0.050866 0.072495 0
0.039147 0.067122 0
0.027694 0.057651 0
0.017156 0.044911 0
0.006874 0.028257 0
-0.004123 0.010871 0
-0.010429 0.000248 0
-0.012005 -0.003012 0
-0.011955 -0.003352 0
-0.011523 -0.002673 0
-0.011087 -0.001432 0
-0.010875 0.000152 0
-0.011016 0.001860 0
-0.011571 0.003458 0
-0.012525 0.004719 0
-0.013778 0.005450 0
-0.015149 0.005534 0
-0.016396 0.004934 0
-0.017254 0.003685 0
-0.017477 0.001864 0
-0.016904 -0.000424 0
-0.015535 -0.002934 0
-0.013552 -0.005352 0
-0.011157 -0.007447 0
-0.008559 -0.009021 0
-0.005966 -0.009894 0
-0.003583 -0.009859 0
-0.001639 -0.008587 0
-0.000378 -0.005511 0
0.000000 0.000003 0
0.000000 0.000019 0
-0.011343 0.073676 0
-0.025613 0.056255 0
-0.035247 0.032397 0
-0.041453 0.013387 0
-0.045536 -0.004144 0
-0.047878 -0.020986 0
-0.049040 -0.037489 0
-0.049180 -0.053599 0
-0.048321 -0.068792 0
-0.046293 -0.082127 0
-0.042737 -0.092137 0
-0.037090 -0.097002 0
-0.028801 -0.094689 0
-0.016592 -0.083507 0
-0.000872 -0.060272 0
0.017606 -0.023568 0
0.036886 0.016535 0
0.042982 0.048006 0
0.045380 0.068132 0
0.044888 0.078388 0
0.041543 0.080545 0
0.036179 0.076135 0
0.029630 0.066798 0
0.022518 0.053956 0
0.014895 0.038311 0
0.005319 0.020798 0
-0.004156 0.005991 0
-0.009296 -0.001512 0
-0.010491 -0.003342 0
-0.010565 -0.003009 0
-0.010296 -0.001743 0
-0.010079 0.000076 0
-0.010078 0.002122 0
-0.010386 0.004088 0
-0.011005 0.005666 0
-0.011853 0.006579 0
-0.012765 0.006635 0
-0.013520 0.005752 0
-0.013879 0.003964 0
-0.013634 0.001420 0
-0.012693 -0.001603 0
-0.011235 -0.004696 0
-0.009433 -0.007497 0
-0.007440 -0.009785 0
-0.005391 -0.011372 0
-0.003434 -0.012079 0
-0.001737 -0.011676 0
-0.000520 -0.009822 0
0.000036 -0.006027 0
0.000000 0.000003 0
0.000000 0.000020 0
-0.007960 0.085464 0
-0.021293 0.068016 0
-0.031059 0.040345 0
-0.037298 0.018681 0
-0.041781 -0.000538 0
-0.045061 -0.018541 0
-0.047739 -0.035773 0
-0.050135 -0.052446 0
-0.052443 -0.068207 0
-0.054660 -0.082359 0
-0.056492 -0.093732 0
-0.057274 -0.100678 0
-0.056105 -0.101137 0
-0.051942 -0.092985 0
-0.044214 -0.074298 0
-0.030876 -0.044738 0
-0.011618 0.000114 0
0.005335 0.041297 0
0.016827 0.063363 0
0.024744 0.076216 0
0.028844 0.081205 0
0.030224 0.079036 0
0.029244 0.071311 0
0.026319 0.059646 0
0.021839 0.045456 0
0.015287 0.029922 0
0.006456 0.014865 0
-0.001619 0.003322 0
-0.006228 -0.002084 0
-0.007595 -0.002868 0
-0.007813 -0.001919 0
-0.007758 -0.000066 0
-0.007661 0.002167 0
-0.007703 0.004385 0
-0.007932 0.006186 0
-0.008295 0.007209 0
-0.008663 0.007200 0
-0.008873 0.006049 0
-0.008771 0.003800 0
-0.008244 0.000679 0
-0.007283 -0.002823 0
-0.006129 -0.006194 0
-0.004876 -0.009147 0
-0.003573 -0.011489 0
-0.002266 -0.013027 0
-0.001054 -0.013548 0
-0.000088 -0.012773 0
0.000435 -0.010360 0
0.000374 -0.006030 0
0.000000 0.000003 0
0.000000 0.000020 0
-0.004489 0.094969 0
-0.016515 0.079353 0
-0.026631 0.048402 0
-0.032946 0.024110 0
-0.037693 0.003619 0
-0.041723 -0.015029 0
-0.045562 -0.032415 0
-0.049719 -0.048895 0
-0.054530 -0.064268 0
-0.060186 -0.078078 0
-0.066597 -0.089523 0
-0.073259 -0.097390 0
-0.079165 -0.100021 0
-0.082767 -0.095398 0
-0.082211 -0.081338 0
-0.075442 -0.056164 0
-0.061535 -0.019677 0
-0.034809 0.019561 0
-0.013663 0.048724 0
0.002301 0.066371 0
0.014050 0.075064 0
0.021844 0.075734 0
0.026496 0.070703 0
0.028124 0.061361 0
0.027320 0.049344 0
0.023963 0.036181 0
0.017885 0.022896 0
0.010218 0.011172 0
0.003164 0.002635 0
-0.001042 -0.001425 0
-0.003044 -0.001579 0
-0.003677 -0.000076 0
-0.003738 0.002067 0
-0.003636 0.004360 0
-0.003536 0.006258 0
-0.003454 0.007310 0
-0.003313 0.007213 0
-0.003025 0.005860 0
-0.002551 0.003335 0
-0.001925 -0.000068 0
-0.001293 -0.003718 0
-0.000735 -0.007103 0
-0.000233 -0.010054 0
0.000252 -0.012395 0
0.000731 -0.013891 0
0.001155 -0.014257 0
0.001393 -0.013165 0
0.001270 -0.010283 0
0.000667 -0.005592 0
0.000000 0.000002 0
0.000000 0.000020 0
-0.001258 0.101979 0
-0.011337 0.090158 0
-0.022009 0.056775 0
-0.028652 0.029743 0
-0.033655 0.008239 0
-0.038367 -0.010673 0
-0.043141 -0.027777 0
-0.048723 -0.043478 0
-0.055499 -0.057741 0
-0.063761 -0.070292 0
-0.073572 -0.080659 0
-0.084638 -0.088111 0
-0.096139 -0.091630 0
-0.106529 -0.089940 0
-0.113398 -0.081622 0
-0.113442 -0.065414 0
-0.103006 -0.040519 0
-0.079205 -0.006574 0
-0.048142 0.026252 0
-0.022030 0.048504 0
-0.002830 0.061662 0
0.011460 0.066589 0
0.021324 0.065032 0
0.027631 0.058822 0
0.031071 0.049617 0
0.031253 0.039358 0
0.028012 0.028610 0
0.022383 0.018044 0
0.015990 0.009176 0
0.009895 0.003340 0
0.005498 0.000716 0
0.002977 0.000628 0
0.001890 0.002127 0
0.001695 0.004184 0
0.001890 0.006004 0
0.002240 0.006987 0
0.002724 0.006771 0
0.003338 0.005286 0
0.003986 0.002700 0
0.004486 -0.000579 0
0.004635 -0.004013 0
0.004524 -0.007254 0
0.004260 -0.010133 0
0.003938 -0.012454 0
0.003597 -0.013930 0
0.003225 -0.014209 0
0.002741 -0.012888 0
0.001993 -0.009634 0
0.000897 -0.004760 0
0.000000 0.000002 0
0.000000 0.000019 0
0.001387 0.106306 0
-0.005893 0.100105 0
-0.017107 0.065716 0
-0.024492 0.035755 0
-0.029784 0.013334 0
-0.035116 -0.005543 0
-0.040774 -0.022060 0
-0.047609 -0.036537 0
-0.056009 -0.049230 0
-0.066218 -0.060006 0
-0.078298 -0.068646 0
-0.092040 -0.074822 0
-0.106824 -0.078131 0
-0.121426 -0.078139 0
-0.133850 -0.074425 0
-0.141255 -0.066556 0
-0.140182 -0.053913 0
-0.127017 -0.035303 0
-0.098451 -0.008451 0
-0.062280 0.021058 0
-0.027027 0.041574 0
-0.000503 0.051582 0
0.016530 0.054531 0
0.025493 0.051615 0
0.032557 0.045722 0
0.036296 0.039240 0
0.035991 0.031766 0
0.033060 0.023194 0
0.028430 0.015122 0
0.022782 0.009068 0
0.017055 0.005339 0
0.012408 0.003532 0
0.009577 0.003348 0
0.008366 0.004359 0
0.008115 0.005713 0
0.008325 0.006476 0
0.008816 0.006115 0
0.009460 0.004598 0
0.010030 0.002187 0
0.010254 -0.000717 0
0.010000 -0.003756 0
0.009349 -0.006728 0
0.008444 -0.009467 0
0.007406 -0.011732 0
0.006298 -0.013179 0
0.005141 -0.013401 0
0.003919 -0.011933 0
0.002554 -0.008439 0
0.001032 -0.003599 0
0.000000 0.000001 0
0.000000 0.000018 0
0.003237 0.107872 0
-0.000422 0.108652 0
-0.011799 0.075375 0
-0.020402 0.042421 0
-0.026025 0.018863 0
-0.031829 0.000317 0
-0.038530 -0.015284 0
-0.046538 -0.028244 0
-0.056344 -0.039133 0
-0.068036 -0.048003 0
-0.081533 -0.054837 0
-0.096545 -0.059585 0
-0.112525 -0.062244 0
-0.128608 -0.062913 0
-0.143558 -0.061793 0
-0.155748 -0.059082 0
-0.163176 -0.054757 0
-0.163380 -0.048305 0
-0.153161 -0.038484 0
-0.128069 -0.022920 0
-0.091108 -0.000114 0
-0.050319 0.023032 0
-0.012022 0.039036 0
0.018145 0.042794 0
0.036220 0.038813 0
0.044701 0.035924 0
0.044626 0.031845 0
0.042655 0.025605 0
0.039376 0.019455 0
0.034357 0.014714 0
0.028305 0.011090 0
0.022906 0.008107 0
0.018923 0.006169 0
0.016400 0.005646 0
0.015042 0.006045 0
0.014476 0.006285 0
0.014509 0.005636 0
0.014875 0.004072 0
0.015205 0.001905 0
0.015163 -0.000549 0
0.014613 -0.003108 0
0.013577 -0.005698 0
0.012173 -0.008190 0
0.010519 -0.010307 0
0.008695 -0.011664 0
0.006774 -0.011831 0
0.004829 -0.010302 0
0.002883 -0.006747 0
0.001034 -0.002206 0
0.000000 0.000000 0
0.000000 0.000017 0
0.004403 0.106728 0
0.004388 0.115140 0
-0.005857 0.085696 0
-0.016167 0.049981 0
-0.022332 0.024761 0
-0.028501 0.006962 0
-0.036327 -0.007351 0
-0.045464 -0.018723 0
-0.056481 -0.027732 0
-0.069296 -0.034817 0
-0.083633 -0.040138 0
-0.099061 -0.043831 0
-0.115019 -0.046067 0
-0.130857 -0.047106 0
-0.145882 -0.047285 0
-0.159401 -0.046937 0
-0.170705 -0.046281 0
-0.178923 -0.045318 0
-0.182758 -0.043761 0
-0.180092 -0.040994 0
-0.167301 -0.036175 0
-0.140913 -0.027505 0
-0.104599 -0.013933 0
-0.062857 0.003372 0
-0.025200 0.019166 0
0.007333 0.030835 0
0.033218 0.033813 0
0.047880 0.028444 0
0.053127 0.023421 0
0.050252 0.020139 0
0.042244 0.016790 0
0.034884 0.012914 0
0.029378 0.009854 0
0.025295 0.008240 0
0.022448 0.007637 0
0.020654 0.007010 0
0.019904 0.005717 0
0.019779 0.003902 0
0.019726 0.001899 0
0.019350 -0.000125 0
0.018470 -0.002171 0
0.017079 -0.004289 0
0.015239 -0.006408 0
0.013034 -0.008254 0
0.010558 -0.009434 0
0.007937 -0.009534 0
0.005341 -0.008041 0
0.002911 -0.004644 0
0.000881 -0.000716 0
0.000000 -0.000001 0
0.000000 0.000017 0
0.005089 0.103483 0
0.007790 0.118911 0
0.000715 0.095929 0
-0.011523 0.058896 0
-0.018800 0.031197 0
-0.025117 0.014312 0
-0.033605 0.001679 0
-0.044085 -0.008090 0
-0.056186 -0.015302 0
-0.069798 -0.020852 0
-0.084557 -0.025072 0
-0.099966 -0.028199 0
-0.115470 -0.030448 0
-0.130554 -0.032050 0
-0.144789 -0.033248 0
-0.157863 -0.034259 0
-0.169559 -0.035235 0
-0.179700 -0.036251 0
-0.188046 -0.037315 0
-0.194155 -0.038377 0
-0.197226 -0.039293 0
-0.196062 -0.039670 0
-0.188170 -0.039020 0
-0.171387 -0.036605 0
-0.144532 -0.031377 0
-0.110980 -0.022494 0
-0.072600 -0.008702 0
-0.037855 0.005697 0
-0.008631 0.017084 0
0.014606 0.025597 0
0.031074 0.026457 0
0.038683 0.020972 0
0.040119 0.015758 0
0.037731 0.012576 0
0.033346 0.010686 0
0.028783 0.008829 0
0.026091 0.006512 0
0.024829 0.004250 0
0.023952 0.002334 0
0.022899 0.000708 0
0.021446 -0.000837 0
0.019548 -0.002467 0
0.017219 -0.004145 0
0.014499 -0.005625 0
0.011479 -0.006568 0
0.008324 -0.006614 0
0.005267 -0.005276 0
0.002562 -0.002287 0
0.000597 0.000706 0
0.000000 -0.000001 0
0.000000 0.000016 0
0.005401 0.098937 0
0.009838 0.119514 0
0.006736 0.105010 0
-0.005933 0.069496 0
-0.015352 0.038354 0
-0.021873 0.021767 0
-0.030528 0.011618 0
-0.041762 0.003858 0
-0.054742 -0.002020 0
-0.069023 -0.006446 0
-0.084025 -0.009970 0
-0.099220 -0.012918 0
-0.114181 -0.015479 0
-0.128557 -0.017787 0
-0.142096 -0.019975 0
-0.154634 -0.022167 0
-0.166037 -0.024444 0
-0.176203 -0.026830 0
-0.185060 -0.029306 0
-0.192534 -0.031814 0
-0.198557 -0.034268 0
-0.203026 -0.036560 0
-0.205638 -0.038607 0
-0.205989 -0.040267 0
-0.203240 -0.041241 0
-0.196134 -0.041097 0
-0.183117 -0.039311 0
-0.161711 -0.035525 0
-0.134660 -0.029040 0
-0.103271 -0.019566 0
-0.070294 -0.007287 0
-0.041826 0.003869 0
-0.019198 0.010806 0
-0.001912 0.015013 0
0.010797 0.016586 0
0.019420 0.014265 0
0.023674 0.009671 0
0.025008 0.006041 0
0.024611 0.003829 0
0.023179 0.002382 0
0.021201 0.001180 0
0.018931 -0.000062 0
0.016406 -0.001360 0
0.013573 -0.002513 0
0.010452 -0.003259 0
0.007245 -0.003323 0
0.004206 -0.002279 0
0.001648 0.000027 0
0.000219 0.001846 0
0.000000 -0.000002 0
0.000000 0.000016 0
0.005449 0.093646 0
0.010873 0.117577 0
0.010925 0.111700 0
0.000750 0.080984 0
-0.011730 0.047137 0
-0.019113 0.029488 0
-0.027937 0.021568 0
-0.039177 0.016123 0
-0.052235 0.011959 0
-0.066370 0.008432 0
-0.080993 0.005126 0
-0.095693 0.001957 0
-0.110186 -0.001111 0
-0.124207 -0.004134 0
-0.137518 -0.007170 0
-0.149911 -0.010318 0
-0.161280 -0.013666 0
-0.171598 -0.017227 0
-0.180854 -0.020984 0
-0.188960 -0.024880 0
-0.195816 -0.028801 0
-0.201318 -0.032588 0
-0.205382 -0.036057 0
-0.207996 -0.039003 0
-0.209143 -0.041231 0
-0.208735 -0.042616 0
-0.206527 -0.043125 0
-0.202092 -0.042761 0
-0.194969 -0.041356 0
-0.184128 -0.038768 0
-0.168755 -0.034988 0
-0.147805 -0.030123 0
-0.124158 -0.024156 0
-0.099721 -0.017419 0
-0.075736 -0.010646 0
-0.053850 -0.004048 0
-0.036489 0.000924 0
-0.023467 0.003314 0
-0.013839 0.004163 0
-0.006807 0.004117 0
-0.001834 0.003411 0
0.001419 0.002327 0
0.003182 0.001213 0
0.003693 0.000329 0
0.003244 -0.000240 0
0.002150 -0.000369 0
0.000777 0.000321 0
-0.000262 0.001701 0
-0.000348 0.002354 0
0.000000 -0.000002 0
0.000000 0.000016 0
0.005308 0.088064 0
0.011140 0.114038 0
0.013297 0.115133 0
0.007003 0.092151 0
-0.007275 0.058217 0
-0.016556 0.037974 0
-0.025712 0.031682 0
-0.036974 0.028156 0
-0.049560 0.025174 0
-0.062871 0.022312 0
-0.076540 0.019354 0
-0.090306 0.016276 0
-0.103949 0.013034 0
-0.117289 0.009546 0
-0.130167 0.005729 0
-0.142441 0.001595 0
-0.154007 -0.002756 0
-0.164744 -0.007256 0
-0.174529 -0.011944 0
-0.183379 -0.016851 0
-0.191322 -0.021909 0
-0.198236 -0.026994 0
-0.203953 -0.031929 0
-0.208275 -0.036505 0
-0.210987 -0.040503 0
-0.211899 -0.043712 0
-0.210900 -0.045954 0
-0.208004 -0.047083 0
-0.203337 -0.047004 0
-0.196928 -0.045780 0
-0.188851 -0.043609 0
-0.179115 -0.040728 0
-0.167805 -0.037278 0
-0.154748 -0.033409 0
-0.140106 -0.029285 0
-0.124148 -0.024982 0
-0.106979 -0.020712 0
-0.090071 -0.016609 0
-0.074352 -0.012831 0
-0.060178 -0.009623 0
-0.047769 -0.007045 0
-0.037241 -0.005078 0
-0.028543 -0.003634 0
-0.021480 -0.002576 0
-0.015802 -0.001716 0
-0.011314 -0.000855 0
-0.007734 0.000133 0
-0.004573 0.001151 0
-0.001705 0.001584 0
0.000000 -0.000004 0
0.000000 0.000016 0
0.005038 0.082506 0
0.010880 0.109588 0
0.014301 0.115838 0
0.011270 0.101556 0
-0.001749 0.070696 0
-0.013772 0.047925 0
-0.023438 0.041986 0
-0.034620 0.039971 0
-0.046779 0.037856 0
-0.059406 0.035411 0
-0.072179 0.032561 0
-0.084875 0.029366 0
-0.097361 0.025873 0
-0.109577 0.022085 0
-0.121511 0.017981 0
-0.133166 0.013521 0
-0.144472 0.008638 0
-0.155289 0.003296 0
-0.165467 -0.002349 0
-0.174912 -0.008087 0
-0.183528 -0.013943 0
-0.191381 -0.019956 0
-0.198366 -0.026018 0
-0.204267 -0.031969 0
-0.208816 -0.037606 0
-0.211736 -0.042703 0
-0.212768 -0.047019 0
-0.211705 -0.050324 0
-0.208415 -0.052433 0
-0.202865 -0.053254 0
-0.195200 -0.052801 0
-0.185730 -0.051169 0
-0.174888 -0.048523 0
-0.163063 -0.045118 0
-0.150651 -0.041245 0
-0.137933 -0.037175 0
-0.125066 -0.033153 0
-0.112229 -0.029314 0
-0.099462 -0.025730 0
-0.086912 -0.022465 0
-0.074737 -0.019526 0
-0.063093 -0.016899 0
-0.052118 -0.014547 0
-0.041917 -0.012412 0
-0.032554 -0.010407 0
-0.024032 -0.008437 0
-0.016311 -0.006419 0
-0.009384 -0.004328 0
-0.003518 -0.002219 0
0.000000 -0.000011 0
0.000000 0.000015 0
0.004683 0.077184 0
0.010274 0.104776 0
0.014288 0.114743 0
0.013526 0.108200 0
0.003668 0.083259 0
-0.010470 0.059663 0
-0.020919 0.052529 0
-0.031967 0.051498 0
-0.043657 0.049961 0
-0.055579 0.047711 0
-0.067494 0.044823 0
-0.079257 0.041459 0
-0.090799 0.037737 0
-0.102087 0.033697 0
-0.113100 0.029319 0
-0.123822 0.024556 0
-0.134247 0.019367 0
-0.144412 0.013740 0
-0.154340 0.007679 0
-0.163899 0.001211 0
-0.172892 -0.005440 0
-0.181200 -0.012156 0
-0.188814 -0.019043 0
-0.195656 -0.026055 0
-0.201481 -0.033033 0
-0.206003 -0.039761 0
-0.208920 -0.045986 0
-0.209930 -0.051435 0
-0.208774 -0.055844 0
-0.205281 -0.058996 0
-0.199421 -0.060745 0
-0.191322 -0.061040 0
-0.181258 -0.059945 0
-0.169610 -0.057646 0
-0.156842 -0.054415 0
-0.143420 -0.050567 0
-0.129771 -0.046416 0
-0.116255 -0.042213 0
-0.103094 -0.038148 0
-0.090436 -0.034348 0
-0.078357 -0.030864 0
-0.066887 -0.027697 0
-0.056034 -0.024811 0
-0.045791 -0.022139 0
-0.036149 -0.019600 0
-0.027093 -0.017098 0
-0.018627 -0.014515 0
-0.010840 -0.011641 0
-0.004130 -0.007799 0
0.000000 -0.000011 0
0.000000 0.000015 0
0.004279 0.072232 0
0.009461 0.099984 0
0.013610 0.112586 0
0.014304 0.112176 0
0.007655 0.094692 0
-0.006586 0.072512 0
-0.018036 0.063483 0
-0.028965 0.062710 0
-0.040162 0.061468 0
-0.051394 0.059248 0
-0.062521 0.056239 0
-0.073452 0.052672 0
-0.084135 0.048703 0
-0.094533 0.044387 0
-0.104623 0.039716 0
-0.114403 0.034669 0
-0.123902 0.029229 0
-0.133168 0.023389 0
-0.142244 0.017139 0
-0.151159 0.010466 0
-0.159903 0.003358 0
-0.168240 -0.004035 0
-0.176013 -0.011562 0
-0.183214 -0.019302 0
-0.189771 -0.027259 0