# vtk DataFile Version 2.0
generated by CFD-lab course output (written by Tobias Neckel) 
ASCII

DATASET STRUCTURED_GRID
DIMENSIONS  51 51 1 
POINTS 2601 float

0.000000 0.000000 0
0.020000 0.000000 0
0.040000 0.000000 0
0.060000 0.000000 0
0.080000 0.000000 0
0.100000 0.000000 0
0.120000 0.000000 0
0.140000 0.000000 0
0.160000 0.000000 0
0.180000 0.000000 0
0.200000 0.000000 0
0.220000 0.000000 0
0.240000 0.000000 0
0.260000 0.000000 0
0.280000 0.000000 0
0.300000 0.000000 0
0.320000 0.000000 0
0.340000 0.000000 0
0.360000 0.000000 0
0.380000 0.000000 0
0.400000 0.000000 0
0.420000 0.000000 0
0.440000 0.000000 0
0.460000 0.000000 0
0.480000 0.000000 0
0.500000 0.000000 0
0.520000 0.000000 0
0.540000 0.000000 0
0.560000 0.000000 0
0.580000 0.000000 0
0.600000 0.000000 0
0.620000 0.000000 0
0.640000 0.000000 0
0.660000 0.000000 0
0.680000 0.000000 0
0.700000 0.000000 0
0.720000 0.000000 0
0.740000 0.000000 0
0.760000 0.000000 0
0.780000 0.000000 0
0.800000 0.000000 0
0.820000 0.000000 0
0.840000 0.000000 0
0.860000 0.000000 0
0.880000 0.000000 0
0.900000 0.000000 0
0.920000 0.000000 0
0.940000 0.000000 0
0.960000 0.000000 0
0.980000 0.000000 0
1.000000 0.000000 0
0.000000 0.020000 0
0.020000 0.020000 0
0.040000 0.020000 0
0.060000 0.020000 0
0.080000 0.020000 0
0.100000 0.020000 0
0.120000 0.020000 0
0.140000 0.020000 0
0.160000 0.020000 0
0.180000 0.020000 0
0.200000 0.020000 0
0.220000 0.020000 0
0.240000 0.020000 0
0.260000 0.020000 0
0.280000 0.020000 0
0.300000 0.020000 0
0.320000 0.020000 0
0.340000 0.020000 0
0.360000 0.020000 0
0.380000 0.020000 0
0.400000 0.020000 0
0.420000 0.020000 0
0.440000 0.020000 0
0.460000 0.020000 0
0.480000 0.020000 0
0.500000 0.020000 0
0.520000 0.020000 0
0.540000 0.020000 0
0.560000 0.020000 0
0.580000 0.020000 0
0.600000 0.020000 0
0.620000 0.020000 0
0.640000 0.020000 0
0.660000 0.020000 0
0.680000 0.020000 0
0.700000 0.020000 0
0.720000 0.020000 0
0.740000 0.020000 0
0.760000 0.020000 0
0.780000 0.020000 0
0.800000 0.020000 0
0.820000 0.020000 0
0.840000 0.020000 0
0.860000 0.020000 0
0.880000 0.020000 0
0.900000 0.020000 0
0.920000 0.020000 0
0.940000 0.020000 0
0.960000 0.020000 0
0.980000 0.020000 0
1.000000 0.020000 0
0.000000 0.040000 0
0.020000 0.040000 0
0.040000 0.040000 0
0.060000 0.040000 0
0.080000 0.040000 0
0.100000 0.040000 0
0.120000 0.040000 0
0.140000 0.040000 0
0.160000 0.040000 0
0.180000 0.040000 0
0.200000 0.040000 0
0.220000 0.040000 0
0.240000 0.040000 0
0.260000 0.040000 0
0.280000 0.040000 0
0.300000 0.040000 0
0.320000 0.040000 0
0.340000 0.040000 0
0.360000 0.040000 0
0.380000 0.040000 0
0.400000 0.040000 0
0.420000 0.040000 0
0.440000 0.040000 0
0.460000 0.040000 0
0.480000 0.040000 0
0.500000 0.040000 0
0.520000 0.040000 0
0.540000 0.040000 0
0.560000 0.040000 0
0.580000 0.040000 0
0.600000 0.040000 0
0.620000 0.040000 0
0.640000 0.040000 0
0.660000 0.040000 0
0.680000 0.040000 0
0.700000 0.040000 0
0.720000 0.040000 0
0.740000 0.040000 0
0.760000 0.040000 0
0.780000 0.040000 0
0.800000 0.040000 0
0.820000 0.040000 0
0.840000 0.040000 0
0.860000 0.040000 0
0.880000 0.040000 0
0.900000 0.040000 0
0.920000 0.040000 0
0.940000 0.040000 0
0.960000 0.040000 0
0.980000 0.040000 0
1.000000 0.040000 0
0.000000 0.060000 0
0.020000 0.060000 0
0.040000 0.060000 0
0.060000 0.060000 0
0.080000 0.060000 0
0.100000 0.060000 0
0.120000 0.060000 0
0.140000 0.060000 0
0.160000 0.060000 0
0.180000 0.060000 0
0.200000 0.060000 0
0.220000 0.060000 0
0.240000 0.060000 0
0.260000 0.060000 0
0.280000 0.060000 0
0.300000 0.060000 0
0.320000 0.060000 0
0.340000 0.060000 0
0.360000 0.060000 0
0.380000 0.060000 0
0.400000 0.060000 0
0.420000 0.060000 0
0.440000 0.060000 0
0.460000 0.060000 0
0.480000 0.060000 0
0.500000 0.060000 0
0.520000 0.060000 0
0.540000 0.060000 0
0.560000 0.060000 0
0.580000 0.060000 0
0.600000 0.060000 0
0.620000 0.060000 0
0.640000 0.060000 0
0.660000 0.060000 0
0.680000 0.060000 0
0.700000 0.060000 0
0.720000 0.060000 0
0.740000 0.060000 0
0.760000 0.060000 0
0.780000 0.060000 0
0.800000 0.060000 0
0.820000 0.060000 0
0.840000 0.060000 0
0.860000 0.060000 0
0.880000 0.060000 0
0.900000 0.060000 0
0.920000 0.060000 0
0.940000 0.060000 0
0.960000 0.060000 0
0.980000 0.060000 0
1.000000 0.060000 0
0.000000 0.080000 0
0.020000 0.080000 0
0.040000 0.080000 0
0.060000 0.080000 0
0.080000 0.080000 0
0.100000 0.080000 0
0.120000 0.080000 0
0.140000 0.080000 0
0.160000 0.080000 0
0.180000 0.080000 0
0.200000 0.080000 0
0.220000 0.080000 0
0.240000 0.080000 0
0.260000 0.080000 0
0.280000 0.080000 0
0.300000 0.080000 0
0.320000 0.080000 0
0.340000 0.080000 0
0.360000 0.080000 0
0.380000 0.080000 0
0.400000 0.080000 0
0.420000 0.080000 0
0.440000 0.080000 0
0.460000 0.080000 0
0.480000 0.080000 0
0.500000 0.080000 0
0.520000 0.080000 0
0.540000 0.080000 0
0.560000 0.080000 0
0.580000 0.080000 0
0.600000 0.080000 0
0.620000 0.080000 0
0.640000 0.080000 0
0.660000 0.080000 0
0.680000 0.080000 0
0.700000 0.080000 0
0.720000 0.080000 0
0.740000 0.080000 0
0.760000 0.080000 0
0.780000 0.080000 0
0.800000 0.080000 0
0.820000 0.080000 0
0.840000 0.080000 0
0.860000 0.080000 0
0.880000 0.080000 0
0.900000 0.080000 0
0.920000 0.080000 0
0.940000 0.080000 0
0.960000 0.080000 0
0.980000 0.080000 0
1.000000 0.080000 0
0.000000 0.100000 0
0.020000 0.100000 0
0.040000 0.100000 0
0.060000 0.100000 0
0.080000 0.100000 0
0.100000 0.100000 0
0.120000 0.100000 0
0.140000 0.100000 0
0.160000 0.100000 0
0.180000 0.100000 0
0.200000 0.100000 0
0.220000 0.100000 0
0.240000 0.100000 0
0.260000 0.100000 0
0.280000 0.100000 0
0.300000 0.100000 0
0.320000 0.100000 0
0.340000 0.100000 0
0.360000 0.100000 0
0.380000 0.100000 0
0.400000 0.100000 0
0.420000 0.100000 0
0.440000 0.100000 0
0.460000 0.100000 0
0.480000 0.100000 0
0.500000 0.100000 0
0.520000 0.100000 0
0.540000 0.100000 0
0.560000 0.100000 0
0.580000 0.100000 0
0.600000 0.100000 0
0.620000 0.100000 0
0.640000 0.100000 0
0.660000 0.100000 0
0.680000 0.100000 0
0.700000 0.100000 0
0.720000 0.100000 0
0.740000 0.100000 0
0.760000 0.100000 0
0.780000 0.100000 0
0.800000 0.100000 0
0.820000 0.100000 0
0.840000 0.100000 0
0.860000 0.100000 0
0.880000 0.100000 0
0.900000 0.100000 0
0.920000 0.100000 0
0.940000 0.100000 0
0.960000 0.100000 0
0.980000 0.100000 0
1.000000 0.100000 0
0.000000 0.120000 0
0.020000 0.120000 0
0.040000 0.120000 0
0.060000 0.120000 0
0.080000 0.120000 0
0.100000 0.120000 0
0.120000 0.120000 0
0.140000 0.120000 0
0.160000 0.120000 0
0.180000 0.120000 0
0.200000 0.120000 0
0.220000 0.120000 0
0.240000 0.120000 0
0.260000 0.120000 0
0.280000 0.120000 0
0.300000 0.120000 0
0.320000 0.120000 0
0.340000 0.120000 0
0.360000 0.120000 0
0.380000 0.120000 0
0.400000 0.120000 0
0.420000 0.120000 0
0.440000 0.120000 0
0.460000 0.120000 0
0.480000 0.120000 0
0.500000 0.120000 0
0.520000 0.120000 0
0.540000 0.120000 0
0.560000 0.120000 0
0.580000 0.120000 0
0.600000 0.120000 0
0.620000 0.120000 0
0.640000 0.120000 0
0.660000 0.120000 0
0.680000 0.120000 0
0.700000 0.120000 0
0.720000 0.120000 0
0.740000 0.120000 0
0.760000 0.120000 0
0.780000 0.120000 0
0.800000 0.120000 0
0.820000 0.120000 0
0.840000 0.120000 0
0.860000 0.120000 0
0.880000 0.120000 0
0.900000 0.120000 0
0.920000 0.120000 0
0.940000 0.120000 0
0.960000 0.120000 0
0.980000 0.120000 0
1.000000 0.120000 0
0.000000 0.140000 0
0.020000 0.140000 0
0.040000 0.140000 0
0.060000 0.140000 0
0.080000 0.140000 0
0.100000 0.140000 0
0.120000 0.140000 0
0.140000 0.140000 0
0.160000 0.140000 0
0.180000 0.140000 0
0.200000 0.140000 0
0.220000 0.140000 0
0.240000 0.140000 0
0.260000 0.140000 0
0.280000 0.140000 0
0.300000 0.140000 0
0.320000 0.140000 0
0.340000 0.140000 0
0.360000 0.140000 0
0.380000 0.140000 0
0.400000 0.140000 0
0.420000 0.140000 0
0.440000 0.140000 0
0.460000 0.140000 0
0.480000 0.140000 0
0.500000 0.140000 0
0.520000 0.140000 0
0.540000 0.140000 0
0.560000 0.140000 0
0.580000 0.140000 0
0.600000 0.140000 0
0.620000 0.140000 0
0.640000 0.140000 0
0.660000 0.140000 0
0.680000 0.140000 0
0.700000 0.140000 0
0.720000 0.140000 0
0.740000 0.140000 0
0.760000 0.140000 0
0.780000 0.140000 0
0.800000 0.140000 0
0.820000 0.140000 0
0.840000 0.140000 0
0.860000 0.140000 0
0.880000 0.140000 0
0.900000 0.140000 0
0.920000 0.140000 0
0.940000 0.140000 0
0.960000 0.140000 0
0.980000 0.140000 0
1.000000 0.140000 0
0.000000 0.160000 0
0.020000 0.160000 0
0.040000 0.160000 0
0.060000 0.160000 0
0.080000 0.160000 0
0.100000 0.160000 0
0.120000 0.160000 0
0.140000 0.160000 0
0.160000 0.160000 0
0.180000 0.160000 0
0.200000 0.160000 0
0.220000 0.160000 0
0.240000 0.160000 0
0.260000 0.160000 0
0.280000 0.160000 0
0.300000 0.160000 0
0.320000 0.160000 0
0.340000 0.160000 0
0.360000 0.160000 0
0.380000 0.160000 0
0.400000 0.160000 0
0.420000 0.160000 0
0.440000 0.160000 0
0.460000 0.160000 0
0.480000 0.160000 0
0.500000 0.160000 0
0.520000 0.160000 0
0.540000 0.160000 0
0.560000 0.160000 0
0.580000 0.160000 0
0.600000 0.160000 0
0.620000 0.160000 0
0.640000 0.160000 0
0.660000 0.160000 0
0.680000 0.160000 0
0.700000 0.160000 0
0.720000 0.160000 0
0.740000 0.160000 0
0.760000 0.160000 0
0.780000 0.160000 0
0.800000 0.160000 0
0.820000 0.160000 0
0.840000 0.160000 0
0.860000 0.160000 0
0.880000 0.160000 0
0.900000 0.160000 0
0.920000 0.160000 0
0.940000 0.160000 0
0.960000 0.160000 0
0.980000 0.160000 0
1.000000 0.160000 0
0.000000 0.180000 0
0.020000 0.180000 0
0.040000 0.180000 0
0.060000 0.180000 0
0.080000 0.180000 0
0.100000 0.180000 0
0.120000 0.180000 0
0.140000 0.180000 0
0.160000 0.180000 0
0.180000 0.180000 0
0.200000 0.180000 0
0.220000 0.180000 0
0.240000 0.180000 0
0.260000 0.180000 0
0.280000 0.180000 0
0.300000 0.180000 0
0.320000 0.180000 0
0.340000 0.180000 0
0.360000 0.180000 0
0.380000 0.180000 0
0.400000 0.180000 0
0.420000 0.180000 0
0.440000 0.180000 0
0.460000 0.180000 0
0.480000 0.180000 0
0.500000 0.180000 0
0.520000 0.180000 0
0.540000 0.180000 0
0.560000 0.180000 0
0.580000 0.180000 0
0.600000 0.180000 0
0.620000 0.180000 0
[...]
POINT_DATA 2601 

VECTORS velocity float
0.000000 0.000000 0
0.000004 0.000000 0
0.000003 0.000000 0
0.000001 0.000000 0
-0.000004 0.000000 0
-0.000010 0.000000 0
-0.000019 0.000000 0
-0.000030 0.000000 0
-0.000046 0.000000 0
-0.000068 0.000000 0
-0.000097 0.000000 0
-0.000131 0.000000 0
-0.000147 0.000000 0
-0.000143 0.000000 0
-0.000129 0.000000 0
-0.000090 0.000000 0
-0.000038 0.000000 0
0.000016 0.000000 0
0.000044 0.000000 0
0.000057 0.000000 0
0.000059 0.000000 0
0.000053 0.000000 0
0.000043 0.000000 0
0.000031 0.000000 0
0.000020 0.000000 0
0.000006 0.000000 0
0.000001 0.000000 0
-0.000000 0.000000 0
-0.000001 0.000000 0
-0.000001 0.000000 0
-0.000001 0.000000 0
-0.000001 0.000000 0
-0.000001 0.000000 0
0.000000 0.000000 0
0.000001 0.000000 0
0.000002 0.000000 0
0.000002 0.000000 0
0.000003 0.000000 0
0.000003 0.000000 0
0.000004 0.000000 0
0.000004 0.000000 0
0.000004 0.000000 0
0.000004 0.000000 0
0.000003 0.000000 0
0.000003 0.000000 0
0.000003 0.000000 0
0.000002 0.000000 0
0.000001 0.000000 0
0.000001 0.000000 0
0.000000 0.000000 0
0.000000 0.000000 0
0.000000 -0.000004 0
-0.016122 0.013472 0
-0.032076 0.011746 0
-0.044417 0.008914 0
-0.054287 0.006716 0
-0.061454 0.004358 0
-0.065567 0.001640 0
-0.066101 -0.001864 0
-0.062515 -0.006580 0
-0.054310 -0.012574 0
-0.041105 -0.019633 0
-0.022682 -0.026518 0
0.000789 -0.031023 0
0.028746 -0.032095 0
0.059665 -0.029209 0
0.089629 -0.021480 0
0.114271 -0.009298 0
0.127812 0.003959 0
0.125234 0.014381 0
0.110599 0.021148 0
0.088685 0.024622 0
0.064092 0.024816 0
0.040501 0.022092 0
0.020475 0.017148 0
0.005487 0.010084 0
-0.003431 0.003199 0
-0.005921 -0.000120 0
-0.005884 -0.000753 0
-0.005234 -0.000808 0
-0.004377 -0.000787 0
-0.003436 -0.000734 0
-0.002515 -0.000630 0
-0.001725 -0.000469 0
-0.001173 -0.000263 0
-0.000936 -0.000038 0
-0.001039 0.000177 0
-0.001446 0.000354 0
-0.002074 0.000466 0
-0.002814 0.000500 0
-0.003553 0.000463 0
-0.004193 0.000372 0
-0.004657 0.000246 0
-0.004890 0.000094 0
-0.004850 -0.000079 0
-0.004504 -0.000268 0
-0.003862 -0.000448 0
-0.002984 -0.000582 0
-0.001977 -0.000624 0
-0.001002 -0.000524 0
-0.000269 -0.000257 0
0.000000 0.000000 0
0.000000 -0.000006 0
-0.019270 0.032075 0
-0.038189 0.028295 0
-0.052993 0.022211 0
-0.064632 0.017037 0
-0.072910 0.011279 0
-0.077597 0.004646 0
-0.078573 -0.003052 0
-0.076095 -0.011793 0
-0.070587 -0.021413 0
-0.062390 -0.031630 0
-0.051817 -0.041895 0
-0.038307 -0.051430 0
-0.020587 -0.058878 0
0.001864 -0.060884 0
0.029001 -0.054607 0
0.059719 -0.038184 0
0.087897 -0.010963 0
0.103214 0.017212 0
0.098841 0.036548 0
0.084064 0.046507 0
0.065077 0.048183 0
0.045705 0.043617 0
0.028224 0.035015 0
0.013704 0.023906 0
0.002042 0.011407 0
-0.005118 0.002452 0
-0.007111 -0.000686 0
-0.007150 -0.001507 0
-0.006508 -0.001798 0
-0.005567 -0.001862 0
-0.004511 -0.001712 0
-0.003526 -0.001342 0
-0.002792 -0.000788 0
-0.002450 -0.000134 0
-0.002568 0.000510 0
-0.003113 0.001035 0
-0.003977 0.001369 0
-0.005010 0.001479 0
-0.006048 0.001379 0
-0.006936 0.001104 0
-0.007544 0.000697 0
-0.007770 0.000193 0
-0.007539 -0.000386 0
-0.006845 -0.000987 0
-0.005753 -0.001520 0
-0.004386 -0.001886 0
-0.002910 -0.001981 0
-0.001527 -0.001707 0
-0.000471 -0.001002 0
0.000000 0.000001 0
0.000000 -0.000007 0
-0.019130 0.051661 0
-0.038360 0.045469 0
-0.052781 0.035357 0
-0.063530 0.026633 0
-0.070853 0.017323 0
-0.075037 0.007302 0
-0.076529 -0.003366 0
-0.075855 -0.014566 0
-0.073442 -0.026281 0
-0.069515 -0.038403 0
-0.064180 -0.050602 0
-0.057304 -0.062253 0
-0.048677 -0.072266 0
-0.037755 -0.078796 0
-0.022590 -0.079334 0
-0.002110 -0.068195 0
0.024177 -0.039536 0
0.054037 0.003437 0
0.062775 0.040297 0
0.060615 0.058385 0
0.053301 0.063177 0
0.043204 0.058946 0
0.032194 0.049147 0
0.021311 0.036264 0
0.011141 0.022021 0
0.001669 0.009035 0
-0.004058 0.001281 0
-0.005987 -0.001411 0
-0.006108 -0.002371 0
-0.005674 -0.002732 0
-0.004966 -0.002671 0
-0.004206 -0.002187 0
-0.003597 -0.001338 0
-0.003305 -0.000262 0
-0.003424 0.000839 0
-0.003957 0.001762 0
-0.004815 0.002363 0
-0.005850 0.002571 0
-0.006879 0.002390 0
-0.007719 0.001869 0
-0.008206 0.001079 0
-0.008223 0.000089 0
-0.007715 -0.001004 0
-0.006754 -0.002054 0
-0.005468 -0.002907 0
-0.004014 -0.003425 0
-0.002560 -0.003483 0
-0.001286 -0.002963 0
-0.000375 -0.001785 0
0.000000 0.000001 0
0.000000 -0.000007 0
-0.017246 0.070435 0
-0.035729 0.061945 0
-0.049110 0.047381 0
-0.058693 0.035110 0
-0.065302 0.022786 0
-0.069552 0.010322 0
-0.072020 -0.002235 0
-0.073131 -0.014880 0
-0.073295 -0.027754 0
-0.072732 -0.040893 0
-0.071611 -0.054107 0
-0.069970 -0.066933 0
-0.067710 -0.078427 0
-0.064489 -0.086970 0
-0.059586 -0.090252 0
-0.052055 -0.084952 0
-0.038223 -0.067110 0
-0.014668 -0.021386 0
0.015061 0.029970 0
0.028646 0.055982 0
0.034096 0.065595 0
0.034946 0.064723 0
0.032394 0.056906 0
0.026974 0.044959 0
0.020084 0.031050 0
0.012126 0.017651 0
0.004235 0.006969 0
-0.000730 0.000543 0
-0.002979 -0.002110 0
-0.003561 -0.003003 0
-0.003573 -0.003180 0
-0.003337 -0.002711 0
-0.003085 -0.001689 0
-0.003001 -0.000306 0
-0.003184 0.001161 0
-0.003670 0.002425 0
-0.004406 0.003262 0
-0.005270 0.003544 0
-0.006097 0.003248 0
-0.006705 0.002431 0
-0.006933 0.001202 0
-0.006689 -0.000298 0
-0.006004 -0.001854 0
-0.005005 -0.003233 0
-0.003836 -0.004261 0
-0.002632 -0.004794 0
-0.001527 -0.004709 0
-0.000655 -0.003892 0
-0.000135 -0.002288 0
0.000000 0.000002 0
0.000000 -0.000004 0
-0.014251 0.087391 0
-0.031512 0.077333 0
-0.043941 0.058320 0
-0.052642 0.042825 0
-0.058975 0.028182 0
-0.063630 0.014019 0
-0.067105 0.000212 0
-0.069731 -0.013292 0
-0.071910 -0.026680 0
-0.073930 -0.040088 0
-0.076073 -0.053364 0
-0.078596 -0.066153 0
-0.081657 -0.077747 0
-0.085150 -0.086919 0
-0.088484 -0.091770 0
-0.090441 -0.089559 0
-0.088638 -0.076924 0
-0.079538 -0.049847 0
-0.046842 -0.003016 0
-0.010217 0.039351 0
0.012086 0.056876 0
0.023252 0.060646 0
0.028848 0.057119 0
0.029587 0.048576 0
0.027408 0.036869 0
0.022506 0.024883 0
0.015713 0.014136 0
0.009082 0.005804 0
0.004260 0.000460 0
0.001314 -0.002138 0
-0.000239 -0.002895 0
-0.000936 -0.002675 0
-0.001272 -0.001674 0
-0.001521 -0.000163 0
-0.001834 0.001508 0
-0.002276 0.002984 0
-0.002832 0.003963 0
-0.003427 0.004262 0
-0.003948 0.003824 0
-0.004260 0.002705 0
-0.004247 0.001064 0
-0.003867 -0.000840 0
-0.003236 -0.002688 0
-0.002473 -0.004222 0
-0.001684 -0.005280 0
-0.000952 -0.005733 0
-0.000359 -0.005460 0
0.000011 -0.004355 0
0.000099 -0.002439 0
0.000000 0.000002 0
0.000000 -0.000000 0
-0.010596 0.101946 0
-0.026373 0.091635 0
-0.038220 0.068512 0
-0.046389 0.050143 0
-0.052695 0.033774 0
-0.057865 0.018451 0
-0.062315 0.003865 0
-0.066348 -0.010076 0
-0.070232 -0.023555 0
-0.074384 -0.036729 0
-0.079109 -0.049441 0
-0.084747 -0.061349 0
-0.091602 -0.071872 0
-0.099801 -0.080144 0
-0.109027 -0.084961 0
-0.118117 -0.084799 0
-0.124490 -0.078012 0
-0.123793 -0.063181 0
-0.109296 -0.039351 0
-0.071233 -0.002947 0
-0.027990 0.032125 0
0.006595 0.047961 0
0.025163 0.050572 0
0.030185 0.046400 0
0.032323 0.038131 0
0.030950 0.029346 0
0.026328 0.020394 0
0.020592 0.011995 0
0.014929 0.005658 0
0.009708 0.001497 0
0.005735 -0.000931 0
0.003244 -0.001679 0
0.001870 -0.001104 0
0.001055 0.000255 0
0.000479 0.001916 0
0.000036 0.003423 0
-0.000321 0.004413 0
-0.000606 0.004661 0
-0.000790 0.004081 0
-0.000824 0.002729 0
-0.000676 0.000809 0
-0.000375 -0.001308 0
-0.000029 -0.003248 0
0.000292 -0.004786 0
0.000544 -0.005781 0
0.000699 -0.006119 0
0.000728 -0.005672 0
0.000592 -0.004350 0
0.000287 -0.002277 0
0.000000 0.000002 0
0.000000 0.000004 0
-0.006696 0.113763 0
-0.020697 0.104957 0
-0.032370 0.078337 0
-0.040317 0.057299 0
-0.046681 0.039656 0
-0.052367 0.023639 0
-0.057773 0.008694 0
-0.063143 -0.005376 0
-0.068572 -0.018644 0
-0.074597 -0.031210 0
-0.081505 -0.043000 0
-0.089572 -0.053660 0
-0.099021 -0.062693 0
-0.109911 -0.069495 0
-0.121952 -0.073454 0
-0.134233 -0.074096 0
-0.144913 -0.071247 0
-0.151094 -0.065040 0
-0.148950 -0.055576 0
-0.134147 -0.041957 0
-0.099292 -0.020952 0
-0.054689 0.007494 0
-0.012327 0.033530 0
0.020735 0.041416 0
0.037240 0.036105 0
0.041498 0.030878 0
0.037378 0.024494 0
0.031987 0.017203 0
0.026038 0.011345 0
0.019764 0.007055 0
0.014036 0.003569 0
0.009782 0.001191 0
0.006888 0.000515 0
0.004936 0.001228 0
0.003703 0.002528 0
0.003063 0.003785 0
0.002831 0.004606 0
0.002821 0.004731 0
0.002926 0.004041 0
0.003082 0.002591 0
0.003221 0.000615 0
0.003271 -0.001487 0
0.003199 -0.003355 0
0.002994 -0.004796 0
0.002661 -0.005687 0
0.002219 -0.005917 0
0.001686 -0.005353 0
0.001073 -0.003914 0
0.000425 -0.001847 0
0.000000 0.000002 0
0.000000 0.000009 0
-0.002976 0.122643 0
-0.014719 0.117309 0
-0.026509 0.088132 0
-0.034549 0.064453 0
-0.040977 0.045823 0
-0.047087 0.029544 0
-0.053312 0.014640 0
-0.059875 0.000722 0
-0.066897 -0.012100 0
-0.074593 -0.023796 0
-0.083357 -0.034466 0
-0.093343 -0.043833 0
-0.104568 -0.051535 0
-0.116853 -0.057214 0
-0.129732 -0.060639 0
-0.142404 -0.061836 0
-0.153765 -0.061150 0
-0.162536 -0.059144 0
-0.167395 -0.056299 0
-0.166889 -0.052606 0
-0.158678 -0.047333 0
-0.138118 -0.039003 0
-0.103020 -0.024852 0
-0.059131 -0.003168 0
-0.020642 0.017368 0
0.010436 0.029208 0
0.032280 0.029904 0
0.040306 0.023335 0
0.039549 0.017881 0
0.032847 0.013499 0
0.024824 0.009051 0
0.018577 0.005469 0
0.013796 0.003743 0
0.010270 0.003441 0
0.007918 0.003789 0
0.006702 0.004295 0
0.006366 0.004655 0
0.006466 0.004566 0
0.006704 0.003821 0
0.006893 0.002434 0
0.006901 0.000619 0
0.006638 -0.001286 0
0.006128 -0.002971 0
0.005407 -0.004249 0
0.004515 -0.005006 0
0.003507 -0.005144 0
0.002453 -0.004526 0
0.001416 -0.003088 0
0.000499 -0.001204 0
0.000000 0.000002 0
0.000000 0.000013 0
0.000099 0.128483 0
-0.008644 0.128490 0
-0.020589 0.098166 0
-0.029086 0.071766 0
-0.035596 0.052194 0
-0.041987 0.035973 0
-0.048846 0.021483 0
-0.056437 0.008210 0
-0.064950 -0.003926 0
-0.074219 -0.014750 0
-0.084475 -0.024250 0
-0.095857 -0.032449 0
-0.108205 -0.039182 0
-0.121159 -0.044331 0
-0.134144 -0.047903 0
-0.146440 -0.050063 0
-0.157324 -0.051115 0
-0.166243 -0.051410 0
-0.172912 -0.051223 0
-0.177215 -0.050674 0
-0.178892 -0.049722 0
-0.177150 -0.048164 0
-0.170291 -0.045458 0
-0.154764 -0.040961 0
-0.127115 -0.033462 0
-0.092623 -0.022045 0
-0.055814 -0.005375 0
-0.025090 0.009935 0
-0.001535 0.018803 0
0.014901 0.021779 0
0.023791 0.017839 0
0.024948 0.012218 0
0.022332 0.008821 0
0.017956 0.007107 0
0.013664 0.006096 0
0.010945 0.005337 0
0.010014 0.004841 0
0.009899 0.004394 0
0.010008 0.003614 0
0.010035 0.002394 0
0.009809 0.000871 0
0.009231 -0.000714 0
0.008318 -0.002124 0
0.007143 -0.003182 0
0.005780 -0.003787 0
0.004318 -0.003856 0
0.002864 -0.003262 0
0.001534 -0.001960 0
0.000484 -0.000431 0
0.000000 0.000001 0
0.000000 0.000016 0
0.002295 0.131287 0
-0.002767 0.137998 0
-0.014515 0.108574 0
-0.023851 0.079459 0
-0.030559 0.058724 0
-0.037125 0.042794 0
-0.044459 0.029090 0
-0.052829 0.016826 0
-0.062381 0.005682 0
-0.073058 -0.004271 0
-0.084597 -0.012828 0
-0.096864 -0.020102 0
-0.109753 -0.026232 0
-0.122878 -0.031275 0
-0.135730 -0.035358 0
-0.147775 -0.038656 0
-0.158529 -0.041347 0
-0.167657 -0.043556 0
-0.174994 -0.045327 0
-0.180504 -0.046626 0
-0.184218 -0.047397 0
-0.186172 -0.047603 0
-0.186310 -0.047239 0
-0.184247 -0.046343 0
-0.179394 -0.044772 0
-0.170244 -0.042093 0
-0.155318 -0.037630 0
-0.131699 -0.030943 0
-0.104344 -0.022110 0
-0.075367 -0.011827 0
-0.049220 -0.000996 0
-0.029068 0.006929 0
-0.014285 0.010734 0
-0.003729 0.012108 0
0.003349 0.010801 0
0.007466 0.007946 0
0.009254 0.005701 0
0.010063 0.004571 0
0.010373 0.003684 0
0.010347 0.002633 0
0.010019 0.001424 0
0.009370 0.000205 0
0.008381 -0.000882 0
0.007082 -0.001710 0
0.005597 -0.002182 0
0.004047 -0.002227 0
0.002547 -0.001742 0
0.001246 -0.000708 0
0.000335 0.000330 0
0.000000 0.000001 0
0.000000 0.000019 0
0.003742 0.131249 0
0.002414 0.145301 0
-0.008227 0.119250 0
-0.018696 0.087810 0
-0.025878 0.065467 0
-0.032585 0.049873 0
-0.040256 0.037187 0
-0.049123 0.026133 0
-0.059251 0.016303 0
-0.070661 0.007466 0
-0.083065 -0.000443 0
-0.096043 -0.007293 0
-0.109191 -0.013168 0
-0.122172 -0.018353 0
-0.134737 -0.023006 0
-0.146601 -0.027264 0
-0.157480 -0.031232 0
-0.167164 -0.034945 0
-0.175472 -0.038377 0
-0.182249 -0.041448 0
-0.187352 -0.044054 0
-0.190682 -0.046073 0
-0.192213 -0.047382 0
-0.192020 -0.047877 0
-0.190306 -0.047465 0
-0.187170 -0.046121 0
-0.182481 -0.043921 0
-0.175656 -0.041038 0
-0.166022 -0.037528 0
-0.152916 -0.033344 0
-0.136165 -0.028460 0
-0.115805 -0.022718 0
-0.094974 -0.016518 0
-0.074753 -0.010527 0
-0.056486 -0.005098 0
-0.041463 -0.000569 0
-0.029824 0.002244 0
-0.020666 0.003276 0
-0.013447 0.003330 0
-0.007931 0.002747 0
-0.003963 0.001848 0
-0.001342 0.000923 0
0.000176 0.000164 0
0.000857 -0.000398 0
0.000969 -0.000753 0
0.000742 -0.000805 0
0.000362 -0.000460 0
0.000023 0.000252 0
-0.000082 0.000815 0
0.000000 -0.000001 0
0.000000 0.000021 0
0.004637 0.128873 0
0.006317 0.149967 0
-0.001711 0.129683 0
-0.013420 0.097110 0
-0.021511 0.072614 0
-0.028418 0.057173 0
-0.036342 0.045628 0
-0.045539 0.035821 0
-0.055923 0.027220 0
-0.067394 0.019543 0
-0.079801 0.012554 0
-0.092838 0.006024 0
-0.106013 -0.000103 0
-0.118989 -0.005728 0
-0.131441 -0.010929 0
-0.143153 -0.015913 0
-0.154093 -0.020784 0
-0.164194 -0.025565 0
-0.173303 -0.030242 0
-0.181250 -0.034746 0
-0.187845 -0.038964 0
-0.192902 -0.042742 0
-0.196264 -0.045900 0
-0.197819 -0.048250 0
-0.197509 -0.049622 0
-0.195322 -0.049919 0
-0.191331 -0.049144 0
-0.185702 -0.047401 0
-0.178716 -0.044849 0
-0.170567 -0.041684 0
-0.161389 -0.038107 0
-0.151177 -0.034262 0
-0.139682 -0.030317 0
-0.127033 -0.026380 0
-0.113413 -0.022489 0
-0.099125 -0.018716 0
-0.084563 -0.015096 0
-0.070796 -0.011806 0
-0.058244 -0.009051 0
-0.047154 -0.006850 0
-0.037626 -0.005165 0
-0.029607 -0.003933 0
-0.022929 -0.003082 0
-0.017379 -0.002503 0
-0.012806 -0.002066 0
-0.009053 -0.001620 0
-0.005964 -0.001023 0
-0.003377 -0.000264 0
-0.001238 0.000353 0
0.000000 -0.000004 0
0.000000 0.000022 0
0.005129 0.124932 0
0.008845 0.151649 0
0.004403 0.138987 0
-0.007724 0.107609 0
-0.017292 0.080466 0
-0.024586 0.064705 0
-0.032686 0.054308 0
-0.042068 0.045713 0
-0.052504 0.038158 0
-0.063787 0.031344 0
-0.075707 0.025001 0
-0.088048 0.018920 0
-0.100649 0.012983 0
-0.113262 0.007074 0
-0.125582 0.001159 0
-0.137396 -0.004612 0
-0.148529 -0.010191 0
-0.158857 -0.015735 0
-0.168421 -0.021320 0
-0.177135 -0.026906 0
-0.184831 -0.032402 0
-0.191305 -0.037653 0
-0.196349 -0.042465 0
-0.199751 -0.046633 0
-0.201315 -0.049962 0
-0.200874 -0.052298 0
-0.198344 -0.053541 0
-0.193753 -0.053654 0
-0.187272 -0.052663 0
-0.179176 -0.050671 0
-0.169832 -0.047850 0
-0.159620 -0.044425 0
-0.148869 -0.040661 0
-0.137879 -0.036795 0
-0.126822 -0.033007 0
-0.115786 -0.029419 0
-0.104804 -0.026084 0
-0.093844 -0.023043 0
-0.083009 -0.020312 0
-0.072422 -0.017871 0
-0.062199 -0.015699 0
-0.052443 -0.013773 0
-0.043250 -0.012064 0
-0.034701 -0.010522 0
-0.026851 -0.009078 0
-0.019725 -0.007647 0
-0.013317 -0.006136 0
-0.007631 -0.004474 0
-0.002866 -0.002562 0
0.000000 -0.000011 0
0.000000 0.000023 0
0.005332 0.120028 0
0.010306 0.150693 0
0.009104 0.146253 0
-0.001392 0.118805 0
-0.012967 0.089476 0
-0.020984 0.072567 0
-0.029194 0.063110 0
-0.038607 0.055639 0
-0.048926 0.048939 0
-0.059875 0.042746 0
-0.071239 0.036815 0
-0.082839 0.030967 0
-0.094541 0.025112 0
-0.106241 0.019205 0
-0.117910 0.013205 0
-0.129448 0.007035 0
-0.140613 0.000677 0
-0.151202 -0.005672 0
-0.161065 -0.011964 0
-0.170168 -0.018336 0
-0.178539 -0.024793 0
-0.185999 -0.031224 0
-0.192319 -0.037454 0
-0.197244 -0.043283 0
-0.200510 -0.048499 0
-0.201876 -0.052890 0
-0.201162 -0.056265 0
-0.198283 -0.058473 0
-0.193271 -0.059426 0
-0.186273 -0.059124 0
-0.177548 -0.057662 0
-0.167434 -0.055225 0
-0.156320 -0.052058 0
-0.144611 -0.048427 0
-0.132667 -0.044582 0
-0.120777 -0.040735 0
-0.109141 -0.037038 0
-0.097870 -0.033600 0
-0.087029 -0.030472 0
-0.076634 -0.027661 0
-0.066680 -0.025144 0
-0.057154 -0.022883 0
-0.048051 -0.020824 0
-0.039374 -0.018902 0
-0.031131 -0.017042 0
-0.023339 -0.015153 0
-0.016032 -0.013117 0
-0.009314 -0.010716 0
-0.003542 -0.007277 0
0.000000 -0.000012 0
0.000000 0.000024 0
0.005333 0.114626 0
0.010966 0.147878 0
0.012160 0.150686 0
0.004851 0.129680 0
-0.008150 0.100058 0
-0.017422 0.080931 0
-0.025754 0.071930 0
-0.035061 0.065445 0
-0.045132 0.059427 0
-0.055655 0.053658 0
-0.066422 0.047966 0
-0.077293 0.042222 0
-0.088173 0.036384 0
-0.099010 0.030444 0
-0.109779 0.024366 0
-0.120450 0.018092 0
-0.131018 0.011563 0
-0.141403 0.004717 0
-0.151341 -0.002354 0
-0.160657 -0.009432 0
-0.169251 -0.016571 0
-0.177226 -0.023872 0
-0.184385 -0.031219 0
-0.190476 -0.038441 0
-0.195217 -0.045330 0
-0.198318 -0.051646 0
-0.199511 -0.057134 0
-0.198592 -0.061544 0
-0.195448 -0.064673 0
-0.190089 -0.066394 0
-0.182657 -0.066689 0
-0.173423 -0.065653 0
-0.162754 -0.063484 0
-0.151074 -0.060448 0
-0.138802 -0.056842 0
-0.126314 -0.052944 0
-0.113905 -0.048990 0
-0.101788 -0.045156 0
-0.090105 -0.041548 0
-0.078932 -0.038220 0
-0.068303 -0.035179 0
-0.058222 -0.032402 0
-0.048679 -0.029844 0
-0.039659 -0.027442 0
-0.031151 -0.025113 0
-0.023155 -0.022746 0
-0.015711 -0.020162 0
-0.008952 -0.016964 0
-0.003276 -0.011876 0
0.000000 -0.000010 0
0.000000 0.000024 0
0.005195 0.109061 0
0.011067 0.143865 0
0.013888 0.152369 0
0.009805 0.139115 0
-0.002556 0.111749 0
-0.013650 0.090171 0
-0.022256 0.080749 0
-0.031364 0.075017 0
-0.041095 0.069534 0
-0.051140 0.064037 0
-0.061305 0.058453 0
-0.071473 0.052717 0
-0.081573 0.046830 0
-0.091569 0.040812 0
-0.101441 0.034644 0
-0.111187 0.028274 0
-0.120808 0.021632 0
-0.130301 0.014651 0
-0.139678 0.007290 0
-0.148797 -0.000425 0
-0.157414 -0.008223 0
-0.165412 -0.016090 0
-0.172918 -0.024204 0
-0.179732 -0.032451 0
-0.185600 -0.040657 0
-0.190225 -0.048596 0
-0.193288 -0.055991 0
-0.194479 -0.062536 0
-0.193541 -0.067929 0
-0.190315 -0.071914 0
-0.184780 -0.074328 0
-0.177071 -0.075128 0
-0.167475 -0.074407 0
-0.156394 -0.072379 0
-0.144288 -0.069343 0
-0.131612 -0.065632 0
-0.118766 -0.061564 0
-0.106063 -0.057400 0
-0.093721 -0.053328 0
-0.081877 -0.049463 0
-0.070603 -0.045855 0
-0.059926 -0.042507 0
-0.049849 -0.039386 0
-0.040364 -0.036430 0
-0.031467 -0.033546 0
-0.023170 -0.030593 0
-0.015530 -0.027321 0
-0.008702 -0.023150 0
-0.003103 -0.016229 0
0.000000 -0.000009 0
0.000000 0.000024 0
0.004966 0.103559 0
0.010796 0.139185 0
0.014601 0.151948 0
0.013102 0.146124 0
0.003285 0.123513 0
-0.009426 0.100631 0
-0.018598 0.089643 0
-0.027478 0.084285 0
-0.036809 0.079204 0
-0.046352 0.073868 0
-0.055924 0.068298 0
-0.065423 0.062490 0
-0.074783 0.056481 0
-0.083962 0.050312 0
-0.092937 0.043985 0
-0.101703 0.037459 0
-0.110276 0.030678 0
-0.118690 0.023587 0
-0.126995 0.016142 0
-0.135233 0.008305 0
-0.143389 0.000043 0
-0.151186 -0.008368 0
-0.158550 -0.016899 0
-0.165598 -0.025759 0
-0.172136 -0.034837 0
-0.177913 -0.043958 0
-0.182608 -0.052880 0
-0.185853 -0.061291 0
-0.187272 -0.068836 0
-0.186538 -0.075155 0
-0.183436 -0.079933 0
-0.177908 -0.082957 0
-0.170084 -0.084160 0
-0.160271 -0.083635 0
-0.148910 -0.081623 0
-0.136504 -0.078466 0
-0.123547 -0.074540 0
-0.110468 -0.070201 0
-0.097593 -0.065734 0
-0.085146 -0.061338 0
-0.073261 -0.057130 0
-0.062006 -0.053156 0
-0.051408 -0.049405 0
-0.041471 -0.045823 0
-0.032197 -0.042307 0
-0.023603 -0.038684 0
-0.015751 -0.034630 0
-0.008798 -0.029391 0
-0.003151 -0.020578 0
0.000000 -0.000009 0
0.000000 0.000023 0
0.004679 0.098266 0
0.010291 0.134230 0
0.014602 0.150062 0
0.015009 0.150431 0
0.008290 0.134278 0
-0.004551 0.112054 0
-0.014657 0.098801 0
-0.023380 0.093229 0
-0.032279 0.088407 0
-0.041308 0.083153 0
-0.050303 0.077525 0
-0.059165 0.071576 0
-0.067822 0.065370 0
-0.076220 0.058966 0
-0.084322 0.052386 0
-0.092119 0.045614 0
-0.099630 0.038619 0
-0.106905 0.031370 0
-0.114015 0.023833 0
-0.121046 0.015970 0