# vtk DataFile Version 2.0
generated by CFD-lab course output (written by Tobias Neckel) 
ASCII

DATASET STRUCTURED_GRID
DIMENSIONS  51 51 1 
POINTS 2601 float

0.000000 0.000000 0
0.020000 0.000000 0
0.040000 0.000000 0
0.060000 0.000000 0
0.080000 0.000000 0
0.100000 0.000000 0
0.120000 0.000000 0
0.140000 0.000000 0
0.160000 0.000000 0
0.180000 0.000000 0
0.200000 0.000000 0
0.220000 0.000000 0
0.240000 0.000000 0
0.260000 0.000000 0
0.280000 0.000000 0
0.300000 0.000000 0
0.320000 0.000000 0
0.340000 0.000000 0
0.360000 0.000000 0
0.380000 0.000000 0
0.400000 0.000000 0
0.420000 0.000000 0
0.440000 0.000000 0
0.460000 0.000000 0
0.480000 0.000000 0
0.500000 0.000000 0
0.520000 0.000000 0
0.540000 0.000000 0
0.560000 0.000000 0
0.580000 0.000000 0
0.600000 0.000000 0
0.620000 0.000000 0
0.640000 0.000000 0
0.660000 0.000000 0
0.680000 0.000000 0
0.700000 0.000000 0
0.720000 0.000000 0
0.740000 0.000000 0
0.760000 0.000000 0
0.780000 0.000000 0
0.800000 0.000000 0
0.820000 0.000000 0
0.840000 0.000000 0
0.860000 0.000000 0
0.880000 0.000000 0
0.900000 0.000000 0
0.920000 0.000000 0
0.940000 0.000000 0
0.960000 0.000000 0
0.980000 0.000000 0
1.000000 0.000000 0
0.000000 0.020000 0
0.020000 0.020000 0
0.040000 0.020000 0
0.060000 0.020000 0
0.080000 0.020000 0
0.100000 0.020000 0
0.120000 0.020000 0
0.140000 0.020000 0
0.160000 0.020000 0
0.180000 0.020000 0
0.200000 0.020000 0
0.220000 0.020000 0
0.240000 0.020000 0
0.260000 0.020000 0
0.280000 0.020000 0
0.300000 0.020000 0
0.320000 0.020000 0
0.340000 0.020000 0
0.360000 0.020000 0
0.380000 0.020000 0
0.400000 0.020000 0
0.420000 0.020000 0
0.440000 0.020000 0
0.460000 0.020000 0
0.480000 0.020000 0
0.500000 0.020000 0
0.520000 0.020000 0
0.540000 0.020000 0
0.560000 0.020000 0
0.580000 0.020000 0
0.600000 0.020000 0
0.620000 0.020000 0
0.640000 0.020000 0
0.660000 0.020000 0
0.680000 0.020000 0
0.700000 0.020000 0
0.720000 0.020000 0
0.740000 0.020000 0
0.760000 0.020000 0
0.780000 0.020000 0
0.800000 0.020000 0
0.820000 0.020000 0
0.840000 0.020000 0
0.860000 0.020000 0
0.880000 0.020000 0
0.900000 0.020000 0
0.920000 0.020000 0
0.940000 0.020000 0
0.960000 0.020000 0
0.980000 0.020000 0
1.000000 0.020000 0
0.000000 0.040000 0
0.020000 0.040000 0
0.040000 0.040000 0
0.060000 0.040000 0
0.080000 0.040000 0
0.100000 0.040000 0
0.120000 0.040000 0
0.140000 0.040000 0
0.160000 0.040000 0
0.180000 0.040000 0
0.200000 0.040000 0
0.220000 0.040000 0
0.240000 0.040000 0
0.260000 0.040000 0
0.280000 0.040000 0
0.300000 0.040000 0
0.320000 0.040000 0
0.340000 0.040000 0
0.360000 0.040000 0
0.380000 0.040000 0
0.400000 0.040000 0
0.420000 0.040000 0
0.440000 0.040000 0
0.460000 0.040000 0
0.480000 0.040000 0
0.500000 0.040000 0
0.520000 0.040000 0
0.540000 0.040000 0
0.560000 0.040000 0
0.580000 0.040000 0
0.600000 0.040000 0
0.620000 0.040000 0
0.640000 0.040000 0
0.660000 0.040000 0
0.680000 0.040000 0
0.700000 0.040000 0
0.720000 0.040000 0
0.740000 0.040000 0
0.760000 0.040000 0
0.780000 0.040000 0
0.800000 0.040000 0
0.820000 0.040000 0
0.840000 0.040000 0
0.860000 0.040000 0
0.880000 0.040000 0
0.900000 0.040000 0
0.920000 0.040000 0
0.940000 0.040000 0
0.960000 0.040000 0
0.980000 0.040000 0
1.000000 0.040000 0
0.000000 0.060000 0
0.020000 0.060000 0
0.040000 0.060000 0
0.060000 0.060000 0
0.080000 0.060000 0
0.100000 0.060000 0
0.120000 0.060000 0
0.140000 0.060000 0
0.160000 0.060000 0
0.180000 0.060000 0
0.200000 0.060000 0
0.220000 0.060000 0
0.240000 0.060000 0
0.260000 0.060000 0
0.280000 0.060000 0
0.300000 0.060000 0
0.320000 0.060000 0
0.340000 0.060000 0
0.360000 0.060000 0
0.380000 0.060000 0
0.400000 0.060000 0
0.420000 0.060000 0
0.440000 0.060000 0
0.460000 0.060000 0
0.480000 0.060000 0
0.500000 0.060000 0
0.520000 0.060000 0
0.540000 0.060000 0
0.560000 0.060000 0
0.580000 0.060000 0
0.600000 0.060000 0
0.620000 0.060000 0
0.640000 0.060000 0
0.660000 0.060000 0
0.680000 0.060000 0
0.700000 0.060000 0
0.720000 0.060000 0
0.740000 0.060000 0
0.760000 0.060000 0
0.780000 0.060000 0
0.800000 0.060000 0
0.820000 0.060000 0
0.840000 0.060000 0
0.860000 0.060000 0
0.880000 0.060000 0
0.900000 0.060000 0
0.920000 0.060000 0
0.940000 0.060000 0
0.960000 0.060000 0
0.980000 0.060000 0
1.000000 0.060000 0
0.000000 0.080000 0
0.020000 0.080000 0
0.040000 0.080000 0
0.060000 0.080000 0
0.080000 0.080000 0
0.100000 0.080000 0
0.120000 0.080000 0
0.140000 0.080000 0
0.160000 0.080000 0
0.180000 0.080000 0
0.200000 0.080000 0
0.220000 0.080000 0
0.240000 0.080000 0
0.260000 0.080000 0
0.280000 0.080000 0
0.300000 0.080000 0
0.320000 0.080000 0
0.340000 0.080000 0
0.360000 0.080000 0
0.380000 0.080000 0
0.400000 0.080000 0
0.420000 0.080000 0
0.440000 0.080000 0
0.460000 0.080000 0
0.480000 0.080000 0
0.500000 0.080000 0
0.520000 0.080000 0
0.540000 0.080000 0
0.560000 0.080000 0
0.580000 0.080000 0
0.600000 0.080000 0
0.620000 0.080000 0
0.640000 0.080000 0
0.660000 0.080000 0
0.680000 0.080000 0
0.700000 0.080000 0
0.720000 0.080000 0
0.740000 0.080000 0
0.760000 0.080000 0
0.780000 0.080000 0
0.800000 0.080000 0
0.820000 0.080000 0
0.840000 0.080000 0
0.860000 0.080000 0
0.880000 0.080000 0
0.900000 0.080000 0
0.920000 0.080000 0
0.940000 0.080000 0
0.960000 0.080000 0
0.980000 0.080000 0
1.000000 0.080000 0
0.000000 0.100000 0
0.020000 0.100000 0
0.040000 0.100000 0
0.060000 0.100000 0
0.080000 0.100000 0
0.100000 0.100000 0
0.120000 0.100000 0
0.140000 0.100000 0
0.160000 0.100000 0
0.180000 0.100000 0
0.200000 0.100000 0
0.220000 0.100000 0
0.240000 0.100000 0
0.260000 0.100000 0
0.280000 0.100000 0
0.300000 0.100000 0
0.320000 0.100000 0
0.340000 0.100000 0
0.360000 0.100000 0
0.380000 0.100000 0
0.400000 0.100000 0
0.420000 0.100000 0
0.440000 0.100000 0
0.460000 0.100000 0
0.480000 0.100000 0
0.500000 0.100000 0
0.520000 0.100000 0
0.540000 0.100000 0
0.560000 0.100000 0
0.580000 0.100000 0
0.600000 0.100000 0
0.620000 0.100000 0
0.640000 0.100000 0
0.660000 0.100000 0
0.680000 0.100000 0
0.700000 0.100000 0
0.720000 0.100000 0
0.740000 0.100000 0
0.760000 0.100000 0
0.780000 0.100000 0
0.800000 0.100000 0
0.820000 0.100000 0
0.840000 0.100000 0
0.860000 0.100000 0
0.880000 0.100000 0
0.900000 0.100000 0
0.920000 0.100000 0
0.940000 0.100000 0
0.960000 0.100000 0
0.980000 0.100000 0
1.000000 0.100000 0
0.000000 0.120000 0
0.020000 0.120000 0
0.040000 0.120000 0
0.060000 0.120000 0
0.080000 0.120000 0
0.100000 0.120000 0
0.120000 0.120000 0
0.140000 0.120000 0
0.160000 0.120000 0
0.180000 0.120000 0
0.200000 0.120000 0
0.220000 0.120000 0
0.240000 0.120000 0
0.260000 0.120000 0
0.280000 0.120000 0
0.300000 0.120000 0
0.320000 0.120000 0
0.340000 0.120000 0
0.360000 0.120000 0
0.380000 0.120000 0
0.400000 0.120000 0
0.420000 0.120000 0
0.440000 0.120000 0
0.460000 0.120000 0
0.480000 0.120000 0
0.500000 0.120000 0
0.520000 0.120000 0
0.540000 0.120000 0
0.560000 0.120000 0
0.580000 0.120000 0
0.600000 0.120000 0
0.620000 0.120000 0
0.640000 0.120000 0
0.660000 0.120000 0
0.680000 0.120000 0
0.700000 0.120000 0
0.720000 0.120000 0
0.740000 0.120000 0
0.760000 0.120000 0
0.780000 0.120000 0
0.800000 0.120000 0
0.820000 0.120000 0
0.840000 0.120000 0
0.860000 0.120000 0
0.880000 0.120000 0
0.900000 0.120000 0
0.920000 0.120000 0
0.940000 0.120000 0
0.960000 0.120000 0
0.980000 0.120000 0
1.000000 0.120000 0
0.000000 0.140000 0
0.020000 0.140000 0
0.040000 0.140000 0
0.060000 0.140000 0
0.080000 0.140000 0
0.100000 0.140000 0
0.120000 0.140000 0
0.140000 0.140000 0
0.160000 0.140000 0
0.180000 0.140000 0
0.200000 0.140000 0
0.220000 0.140000 0
0.240000 0.140000 0
0.260000 0.140000 0
0.280000 0.140000 0
0.300000 0.140000 0
0.320000 0.140000 0
0.340000 0.140000 0
0.360000 0.140000 0
0.380000 0.140000 0
0.400000 0.140000 0
0.420000 0.140000 0
0.440000 0.140000 0
0.460000 0.140000 0
0.480000 0.140000 0
0.500000 0.140000 0
0.520000 0.140000 0
0.540000 0.140000 0
0.560000 0.140000 0
0.580000 0.140000 0
0.600000 0.140000 0
0.620000 0.140000 0
0.640000 0.140000 0
0.660000 0.140000 0
0.680000 0.140000 0
0.700000 0.140000 0
0.720000 0.140000 0
0.740000 0.140000 0
0.760000 0.140000 0
0.780000 0.140000 0
0.800000 0.140000 0
0.820000 0.140000 0
0.840000 0.140000 0
0.860000 0.140000 0
0.880000 0.140000 0
0.900000 0.140000 0
0.920000 0.140000 0
0.940000 0.140000 0
0.960000 0.140000 0
0.980000 0.140000 0
1.000000 0.140000 0
0.000000 0.160000 0
0.020000 0.160000 0
0.040000 0.160000 0
0.060000 0.160000 0
0.080000 0.160000 0
0.100000 0.160000 0
0.120000 0.160000 0
0.140000 0.160000 0
0.160000 0.160000 0
0.180000 0.160000 0
0.200000 0.160000 0
0.220000 0.160000 0
0.240000 0.160000 0
0.260000 0.160000 0
0.280000 0.160000 0
0.300000 0.160000 0
0.320000 0.160000 0
0.340000 0.160000 0
0.360000 0.160000 0
0.380000 0.160000 0
0.400000 0.160000 0
0.420000 0.160000 0
0.440000 0.160000 0
0.460000 0.160000 0
0.480000 0.160000 0
0.500000 0.160000 0
0.520000 0.160000 0
0.540000 0.160000 0
0.560000 0.160000 0
0.580000 0.160000 0
0.600000 0.160000 0
0.620000 0.160000 0
0.640000 0.160000 0
0.660000 0.160000 0
0.680000 0.160000 0
0.700000 0.160000 0
0.720000 0.160000 0
0.740000 0.160000 0
0.760000 0.160000 0
0.780000 0.160000 0
0.800000 0.160000 0
0.820000 0.160000 0
0.840000 0.160000 0
0.860000 0.160000 0
0.880000 0.160000 0
0.900000 0.160000 0
0.920000 0.160000 0
0.940000 0.160000 0
0.960000 0.160000 0
0.980000 0.160000 0
1.000000 0.160000 0
0.000000 0.180000 0
0.020000 0.180000 0
0.040000 0.180000 0
0.060000 0.180000 0
0.080000 0.180000 0
0.100000 0.180000 0
0.120000 0.180000 0
0.140000 0.180000 0
0.160000 0.180000 0
0.180000 0.180000 0
0.200000 0.180000 0
0.220000 0.180000 0
0.240000 0.180000 0
0.260000 0.180000 0
0.280000 0.180000 0
0.300000 0.180000 0
0.320000 0.180000 0
0.340000 0.180000 0
0.360000 0.180000 0
0.380000 0.180000 0
0.400000 0.180000 0
0.420000 0.180000 0
0.440000 0.180000 0
0.460000 0.180000 0
0.480000 0.180000 0
0.500000 0.180000 0
0.520000 0.180000 0
0.540000 0.180000 0
0.560000 0.180000 0
0.580000 0.180000 0
0.600000 0.180000 0
0.620000 0.180000 0
[...]
POINT_DATA 2601 

VECTORS velocity float
0.000000 0.000000 0
-0.000006 0.000000 0
-0.000011 0.000000 0
-0.000015 0.000000 0
-0.000018 0.000000 0
-0.000021 0.000000 0
-0.000022 0.000000 0
-0.000019 0.000000 0
-0.000012 0.000000 0
-0.000004 0.000000 0
0.000006 0.000000 0
0.000016 0.000000 0
0.000024 0.000000 0
0.000029 0.000000 0
0.000030 0.000000 0
0.000028 0.000000 0
0.000023 0.000000 0
0.000017 0.000000 0
0.000009 0.000000 0
-0.000001 0.000000 0
-0.000010 0.000000 0
-0.000020 0.000000 0
-0.000027 0.000000 0
-0.000033 0.000000 0
-0.000034 0.000000 0
-0.000029 0.000000 0
-0.000011 0.000000 0
0.000001 0.000000 0
0.000004 0.000000 0
0.000004 0.000000 0
0.000005 0.000000 0
0.000005 0.000000 0
0.000006 0.000000 0
0.000006 0.000000 0
0.000006 0.000000 0
0.000006 0.000000 0
0.000005 0.000000 0
0.000005 0.000000 0
0.000004 0.000000 0
0.000003 0.000000 0
0.000003 0.000000 0
0.000002 0.000000 0
0.000001 0.000000 0
0.000000 0.000000 0
-0.000000 0.000000 0
-0.000001 0.000000 0
-0.000001 0.000000 0
-0.000001 0.000000 0
-0.000001 0.000000 0
-0.000000 0.000000 0
0.000000 0.000000 0
0.000000 0.000006 0
-0.012405 0.008530 0
-0.021337 0.004148 0
-0.024668 -0.000402 0
-0.023797 -0.004543 0
-0.018776 -0.009324 0
-0.009482 -0.014012 0
0.003947 -0.017399 0
0.021194 -0.019315 0
0.041066 -0.019634 0
0.061967 -0.017918 0
0.082135 -0.014344 0
0.099689 -0.009417 0
0.112930 -0.003982 0
0.120655 0.000935 0
0.122383 0.004678 0
0.118588 0.007385 0
0.110589 0.009469 0
0.099407 0.011148 0
0.085887 0.012485 0
0.070808 0.013426 0
0.054950 0.013844 0
0.039109 0.013606 0
0.024073 0.012632 0
0.010565 0.010873 0
-0.000775 0.007265 0
-0.007988 0.002550 0
-0.009920 -0.000456 0
-0.009377 -0.001259 0
-0.008487 -0.001032 0
-0.007875 -0.000597 0
-0.007643 -0.000181 0
-0.007802 0.000178 0
-0.008308 0.000456 0
-0.009094 0.000641 0
-0.010069 0.000738 0
-0.011131 0.000754 0
-0.012178 0.000699 0
-0.013117 0.000588 0
-0.013871 0.000436 0
-0.014373 0.000252 0
-0.014561 0.000036 0
-0.014368 -0.000223 0
-0.013718 -0.000534 0
-0.012558 -0.000882 0
-0.010870 -0.001240 0
-0.008693 -0.001551 0
-0.006153 -0.001726 0
-0.003502 -0.001619 0
-0.001185 -0.001018 0
0.000000 -0.000000 0
0.000000 0.000012 0
-0.014735 0.021336 0
-0.026527 0.012262 0
-0.032566 0.002459 0
-0.034286 -0.005893 0
-0.032388 -0.014315 0
-0.027239 -0.022724 0
-0.018584 -0.030677 0
-0.005897 -0.037119 0
0.010601 -0.040773 0
0.030722 -0.041068 0
0.052986 -0.037721 0
0.075769 -0.030794 0
0.096946 -0.020966 0
0.114096 -0.009453 0
0.125101 0.002066 0
0.128423 0.011793 0
0.124541 0.019181 0
0.114868 0.024701 0
0.100963 0.028598 0
0.084391 0.030937 0
0.066594 0.031698 0
0.048804 0.030876 0
0.031992 0.028544 0
0.016891 0.024848 0
0.003983 0.018553 0
-0.006686 0.009145 0
-0.011685 0.001388 0
-0.012734 -0.001433 0
-0.012615 -0.001502 0
-0.012497 -0.000844 0
-0.012639 -0.000073 0
-0.013105 0.000665 0
-0.013912 0.001293 0
-0.015032 0.001761 0
-0.016388 0.002037 0
-0.017865 0.002109 0
-0.019329 0.001986 0
-0.020642 0.001694 0
-0.021670 0.001256 0
-0.022289 0.000690 0
-0.022379 -0.000005 0
-0.021813 -0.000843 0
-0.020523 -0.001810 0
-0.018491 -0.002848 0
-0.015763 -0.003865 0
-0.012464 -0.004717 0
-0.008804 -0.005191 0
-0.005101 -0.004968 0
-0.001848 -0.003502 0
0.000000 -0.000000 0
0.000000 0.000017 0
-0.014355 0.035057 0
-0.027142 0.021978 0
-0.034570 0.007356 0
-0.038204 -0.004722 0
-0.038603 -0.016371 0
-0.036175 -0.027815 0
-0.030919 -0.038741 0
-0.022899 -0.048500 0
-0.011667 -0.056252 0
0.003194 -0.060302 0
0.021625 -0.059391 0
0.042416 -0.053378 0
0.064134 -0.042309 0
0.084411 -0.027220 0
0.101071 -0.009650 0
0.111813 0.007944 0
0.114306 0.023024 0
0.109556 0.034725 0
0.099107 0.042962 0
0.084855 0.047795 0
0.068639 0.049430 0
0.051986 0.048207 0
0.036036 0.044546 0
0.021581 0.038882 0
0.009130 0.030842 0
-0.002126 0.018218 0
-0.010301 0.005591 0
-0.013276 -0.000330 0
-0.013949 -0.001269 0
-0.014259 -0.000573 0
-0.014714 0.000427 0
-0.015420 0.001451 0
-0.016420 0.002383 0
-0.017705 0.003118 0
-0.019211 0.003571 0
-0.020829 0.003694 0
-0.022409 0.003475 0
-0.023778 0.002929 0
-0.024756 0.002084 0
-0.025167 0.000961 0
-0.024849 -0.000440 0
-0.023687 -0.002079 0
-0.021685 -0.003855 0
-0.018929 -0.005642 0
-0.015583 -0.007267 0
-0.011876 -0.008510 0
-0.008076 -0.009089 0
-0.004488 -0.008575 0
-0.001530 -0.006119 0
0.000000 0.000001 0
0.000000 0.000020 0
-0.012795 0.048477 0
-0.025873 0.032477 0
-0.034108 0.013520 0
-0.038931 -0.001860 0
-0.040936 -0.016344 0
-0.040588 -0.030408 0
-0.037921 -0.043953 0
-0.032916 -0.056370 0
-0.025450 -0.066865 0
-0.015437 -0.074360 0
-0.002180 -0.076944 0
0.014250 -0.073304 0
0.033240 -0.062962 0
0.052781 -0.046391 0
0.070987 -0.025336 0
0.085066 -0.001442 0
0.092259 0.021437 0
0.092443 0.039899 0
0.086705 0.053299 0
0.076793 0.061406 0
0.064398 0.064567 0
0.050954 0.063479 0
0.037577 0.058949 0
0.025078 0.051752 0
0.013992 0.042259 0
0.003952 0.028577 0
-0.006399 0.012538 0
-0.012013 0.002214 0
-0.013751 -0.000519 0
-0.014332 -0.000079 0
-0.014865 0.001088 0
-0.015607 0.002371 0
-0.016617 0.003578 0
-0.017889 0.004553 0
-0.019366 0.005161 0
-0.020937 0.005306 0
-0.022437 0.004935 0
-0.023661 0.004041 0
-0.024390 0.002644 0
-0.024410 0.000782 0
-0.023541 -0.001485 0
-0.021774 -0.004006 0
-0.019202 -0.006567 0
-0.016022 -0.008950 0
-0.012504 -0.010918 0
-0.008940 -0.012224 0
-0.005613 -0.012578 0
-0.002784 -0.011514 0
-0.000756 -0.007990 0
0.000000 0.000003 0
0.000000 0.000022 0
-0.010536 0.060930 0
-0.023458 0.043290 0
-0.032128 0.020414 0
-0.037570 0.002107 0
-0.040704 -0.014714 0
-0.041984 -0.030831 0
-0.041580 -0.046413 0
-0.039481 -0.060969 0
-0.035542 -0.073731 0
-0.029587 -0.083573 0
-0.021425 -0.089078 0
-0.010367 -0.088798 0
0.003566 -0.080841 0
0.020094 -0.064968 0
0.037739 -0.041935 0
0.052957 -0.013328 0
0.063956 0.015645 0
0.067790 0.040279 0
0.066680 0.058613 0
0.062116 0.070101 0
0.055004 0.075268 0
0.046262 0.075028 0
0.036766 0.070422 0
0.027262 0.062467 0
0.018308 0.051968 0
0.009962 0.038609 0
0.000287 0.021555 0
-0.008548 0.007022 0
-0.012182 0.001050 0
-0.013254 0.000542 0
-0.013781 0.001703 0
-0.014377 0.003202 0
-0.015197 0.004664 0
-0.016261 0.005867 0
-0.017521 0.006619 0
-0.018866 0.006765 0
-0.020124 0.006200 0
-0.021071 0.004883 0
-0.021462 0.002833 0
-0.021077 0.000112 0
-0.019772 -0.003076 0
-0.017629 -0.006418 0
-0.014824 -0.009607 0
-0.011630 -0.012340 0
-0.008362 -0.014349 0
-0.005322 -0.015401 0
-0.002778 -0.015246 0
-0.000945 -0.013431 0
-0.000008 -0.008902 0
0.000000 0.000005 0
0.000000 0.000021 0
-0.007808 0.071935 0
-0.020194 0.054069 0
-0.029135 0.027632 0
-0.034819 0.006716 0
-0.038700 -0.011930 0
-0.041157 -0.029532 0
-0.042585 -0.046455 0
-0.043067 -0.062408 0
-0.042527 -0.076759 0
-0.040723 -0.088477 0
-0.037260 -0.096164 0
-0.031677 -0.098294 0
-0.023633 -0.093424 0
-0.012425 -0.080565 0
0.001121 -0.058199 0
0.016151 -0.027659 0
0.030982 0.006605 0
0.037979 0.037175 0
0.041411 0.058972 0
0.042662 0.073081 0
0.041522 0.080420 0
0.038314 0.081716 0
0.033553 0.077949 0
0.027830 0.070210 0
0.021665 0.059559 0
0.015308 0.046597 0
0.007915 0.031048 0
-0.001618 0.014684 0
-0.008567 0.004187 0
-0.010927 0.001519 0
-0.011653 0.002210 0
-0.012052 0.003787 0
-0.012553 0.005462 0
-0.013254 0.006877 0
-0.014133 0.007767 0
-0.015093 0.007909 0
-0.015975 0.007140 0
-0.016564 0.005379 0
-0.016616 0.002649 0
-0.015918 -0.000908 0
-0.014414 -0.004933 0
-0.012228 -0.008954 0
-0.009579 -0.012566 0
-0.006764 -0.015412 0
-0.004077 -0.017226 0
-0.001789 -0.017808 0
-0.000148 -0.016956 0
0.000682 -0.014284 0
0.000619 -0.008935 0
0.000000 0.000005 0
0.000000 0.000020 0
-0.004817 0.081123 0
-0.016255 0.064617 0
-0.025538 0.035039 0
-0.031327 0.011671 0
-0.035614 -0.008377 0
-0.038899 -0.026945 0
-0.041750 -0.044502 0
-0.044377 -0.061028 0
-0.046840 -0.076076 0
-0.048981 -0.088841 0
-0.050369 -0.098125 0
-0.050323 -0.102425 0
-0.048101 -0.100093 0
-0.043067 -0.089722 0
-0.035071 -0.070512 0
-0.023306 -0.043189 0
-0.009455 -0.006183 0
0.003852 0.029850 0
0.013276 0.053928 0
0.020719 0.069989 0
0.025333 0.079617 0
0.027689 0.082997 0
0.027982 0.080905 0
0.026513 0.074353 0
0.023678 0.064490 0
0.019789 0.052361 0
0.014667 0.038481 0
0.007367 0.023504 0
-0.001174 0.010358 0
-0.006504 0.003627 0
-0.008235 0.002829 0
-0.008660 0.004103 0
-0.008852 0.005867 0
-0.009124 0.007448 0
-0.009527 0.008459 0
-0.009990 0.008606 0
-0.010391 0.007670 0
-0.010568 0.005523 0
-0.010320 0.002187 0
-0.009438 -0.002090 0
-0.007971 -0.006766 0
-0.006086 -0.011252 0
-0.003968 -0.015070 0
-0.001860 -0.017843 0
0.000001 -0.019325 0
0.001400 -0.019330 0
0.002141 -0.017717 0
0.002072 -0.014197 0
0.001153 -0.008220 0
0.000000 0.000005 0
0.000000 0.000018 0
-0.001841 0.088190 0
-0.011748 0.074789 0
-0.021550 0.042703 0
-0.027528 0.016792 0
-0.031984 -0.004357 0
-0.035862 -0.023396 0
-0.039806 -0.040977 0
-0.044141 -0.057318 0
-0.049070 -0.072155 0
-0.054586 -0.084949 0
-0.060381 -0.094822 0
-0.065784 -0.100563 0
-0.069773 -0.100680 0
-0.071070 -0.093596 0
-0.068478 -0.077961 0
-0.061165 -0.053275 0
-0.049572 -0.020554 0
-0.031337 0.014443 0
-0.016124 0.042105 0
-0.003130 0.061024 0
0.007395 0.073449 0
0.015236 0.079067 0
0.020345 0.079125 0
0.023204 0.074515 0
0.024022 0.066284 0
0.023050 0.055608 0
0.020403 0.043469 0
0.015656 0.030524 0
0.008740 0.018058 0
0.001605 0.008581 0
-0.002431 0.004367 0
-0.003844 0.004404 0
-0.004059 0.005926 0
-0.004008 0.007552 0
-0.003960 0.008633 0
-0.003905 0.008774 0
-0.003768 0.007719 0
-0.003470 0.005307 0
-0.002916 0.001519 0
-0.001960 -0.003257 0
-0.000795 -0.008284 0
0.000456 -0.012957 0
0.001700 -0.016792 0
0.002846 -0.019380 0
0.003743 -0.020486 0
0.004215 -0.019948 0
0.004098 -0.017628 0
0.003223 -0.013296 0
0.001568 -0.006863 0
0.000000 0.000005 0
0.000000 0.000015 0
0.000757 0.092870 0
-0.006785 0.084326 0
-0.017186 0.050819 0
-0.023639 0.022105 0
-0.028137 -0.000042 0
-0.032520 -0.019122 0
-0.037347 -0.036223 0
-0.043051 -0.051764 0
-0.049927 -0.065632 0
-0.058093 -0.077531 0
-0.067401 -0.086927 0
-0.077328 -0.093033 0
-0.086880 -0.094807 0
-0.094533 -0.091018 0
-0.098315 -0.080417 0
-0.096044 -0.062096 0
-0.085965 -0.036012 0
-0.067582 -0.003598 0
-0.045351 0.025722 0
-0.027975 0.046469 0
-0.012207 0.061250 0
0.000819 0.070047 0
0.011072 0.072938 0
0.018075 0.070676 0
0.022583 0.064643 0
0.024798 0.055980 0
0.024930 0.045875 0
0.022787 0.035167 0
0.018204 0.024411 0
0.012170 0.014798 0
0.006646 0.008278 0
0.003494 0.005731 0
0.002341 0.006031 0
0.002181 0.007349 0
0.002421 0.008355 0
0.002882 0.008414 0
0.003533 0.007235 0
0.004337 0.004672 0
0.005209 0.000677 0
0.006009 -0.004211 0
0.006593 -0.009183 0
0.006985 -0.013747 0
0.007210 -0.017460 0
0.007292 -0.019885 0
0.007158 -0.020693 0
0.006670 -0.019685 0
0.005684 -0.016725 0
0.004053 -0.011668 0
0.001808 -0.004997 0
0.000000 0.000004 0
0.000000 0.000012 0
0.002688 0.094974 0
-0.001558 0.092732 0
-0.012356 0.059557 0
-0.019801 0.027743 0
-0.024386 0.004524 0
-0.029196 -0.014186 0
-0.034768 -0.030446 0
-0.041618 -0.044738 0
-0.050041 -0.057114 0
-0.060182 -0.067476 0
-0.071974 -0.075587 0
-0.085044 -0.081083 0
-0.098591 -0.083476 0
-0.111248 -0.082161 0
-0.121020 -0.076450 0
-0.125358 -0.065625 0
-0.121530 -0.049017 0
-0.107363 -0.026171 0
-0.082412 0.002498 0
-0.055377 0.027880 0
-0.032899 0.044655 0
-0.015215 0.055788 0
-0.000318 0.061870 0
0.010953 0.063003 0
0.019147 0.059560 0
0.024848 0.053261 0
0.028179 0.045481 0
0.028832 0.037251 0
0.026661 0.028675 0
0.022537 0.020140 0
0.017720 0.013042 0
0.013682 0.008709 0
0.011148 0.007240 0
0.009992 0.007472 0
0.009802 0.007932 0
0.010276 0.007662 0
0.011189 0.006264 0
0.012294 0.003631 0
0.013287 -0.000153 0
0.013754 -0.004641 0
0.013684 -0.009261 0
0.013204 -0.013574 0
0.012430 -0.017099 0
0.011427 -0.019329 0
0.010187 -0.019863 0
0.008658 -0.018473 0
0.006780 -0.015011 0
0.004459 -0.009421 0
0.001796 -0.002809 0
0.000000 0.000002 0
0.000000 0.000011 0
0.003974 0.094428 0
0.003327 0.099371 0
-0.006852 0.069062 0
-0.015979 0.034135 0
-0.020949 0.009353 0
-0.026029 -0.008741 0
-0.032247 -0.023801 0
-0.040116 -0.036490 0
-0.049824 -0.047068 0
-0.061426 -0.055599 0
-0.074808 -0.062065 0
-0.089642 -0.066416 0
-0.105311 -0.068604 0
-0.120817 -0.068589 0
-0.134709 -0.066307 0
-0.145052 -0.061586 0
-0.149493 -0.054007 0
-0.145422 -0.042717 0
-0.130326 -0.026265 0
-0.102688 -0.003043 0
-0.070248 0.021088 0
-0.038816 0.037467 0
-0.014144 0.046769 0
0.003920 0.051212 0
0.015140 0.050749 0
0.023083 0.046946 0
0.029398 0.041891 0
0.033002 0.036687 0
0.033383 0.030705 0
0.031774 0.023738 0
0.028893 0.017133 0
0.025448 0.012303 0
0.022210 0.009722 0
0.019804 0.008696 0
0.018578 0.008071 0
0.018472 0.007026 0
0.019125 0.005217 0
0.020055 0.002574 0
0.020770 -0.000782 0
0.020829 -0.004608 0
0.020169 -0.008633 0
0.018889 -0.012493 0
0.017130 -0.015683 0
0.015009 -0.017642 0
0.012614 -0.017924 0
0.010019 -0.016278 0
0.007277 -0.012525 0
0.004374 -0.006685 0
0.001494 -0.000538 0
0.000000 0.000001 0
0.000000 0.000009 0
0.004764 0.091647 0
0.007006 0.103559 0
-0.000424 0.078863 0
-0.011883 0.041841 0
-0.017845 0.014574 0
-0.022935 -0.002888 0
-0.029794 -0.016359 0
-0.038612 -0.027162 0
-0.049424 -0.035804 0
-0.062129 -0.042492 0
-0.076473 -0.047372 0
-0.092065 -0.050581 0
-0.108367 -0.052301 0
-0.124693 -0.052764 0
-0.140201 -0.052217 0
-0.153878 -0.050841 0
-0.164495 -0.048645 0
-0.170490 -0.045338 0
-0.169772 -0.040236 0
-0.159456 -0.032198 0
-0.136153 -0.019217 0
-0.103371 -0.000317 0
-0.067017 0.019135 0
-0.031302 0.033720 0
-0.000880 0.040396 0
0.020628 0.039004 0
0.034024 0.035564 0
0.040701 0.033265 0
0.041033 0.029903 0
0.040441 0.024630 0
0.039196 0.019368 0
0.036794 0.015392 0
0.033615 0.012884 0
0.030552 0.011104 0
0.028519 0.009264 0
0.027675 0.007115 0
0.027632 0.004681 0
0.027847 0.001986 0
0.027798 -0.000928 0
0.027161 -0.004040 0
0.025780 -0.007320 0
0.023669 -0.010535 0
0.020926 -0.013218 0
0.017701 -0.014813 0
0.014185 -0.014874 0
0.010589 -0.013136 0
0.007092 -0.009367 0
0.003778 -0.003638 0
0.000974 0.001565 0
0.000000 -0.000001 0
0.000000 0.000008 0
0.005164 0.087421 0
0.009327 0.104559 0
0.005907 0.087951 0
-0.006721 0.051556 0
-0.014853 0.020405 0
-0.019842 0.003208 0
-0.027343 -0.008124 0
-0.037045 -0.016860 0
-0.048792 -0.023551 0
-0.062315 -0.028550 0
-0.077204 -0.032130 0
-0.092983 -0.034522 0
-0.109134 -0.035976 0
-0.125138 -0.036756 0
-0.140513 -0.037123 0
-0.154821 -0.037292 0
-0.167639 -0.037394 0
-0.178467 -0.037440 0
-0.186570 -0.037299 0
-0.190786 -0.036662 0
-0.189283 -0.034996 0
-0.178972 -0.031669 0
-0.157176 -0.025300 0
-0.126469 -0.014925 0
-0.089875 -0.001181 0
-0.053299 0.012043 0
-0.020926 0.021819 0
0.007111 0.029678 0
0.029949 0.030965 0
0.044218 0.025576 0
0.051275 0.020780 0
0.052428 0.017884 0
0.049071 0.015964 0
0.043922 0.013792 0
0.040144 0.010948 0
0.038090 0.007914 0
0.036900 0.005045 0
0.035858 0.002408 0
0.034509 -0.000096 0
0.032624 -0.002590 0
0.030144 -0.005142 0
0.027020 -0.007639 0
0.023263 -0.009715 0
0.019025 -0.010901 0
0.014560 -0.010812 0
0.010175 -0.009185 0
0.006145 -0.005715 0
0.002644 -0.000567 0
0.000383 0.003240 0
0.000000 -0.000003 0
0.000000 0.000007 0
0.005281 0.082319 0
0.010594 0.102816 0
0.010543 0.094911 0
0.000166 0.062601 0
-0.011653 0.027695 0
-0.017010 0.009601 0
-0.024449 0.000844 0
-0.035057 -0.005713 0
-0.047711 -0.010534 0
-0.061819 -0.014079 0
-0.076936 -0.016704 0
-0.092589 -0.018651 0
-0.108308 -0.020146 0
-0.123678 -0.021385 0
-0.138381 -0.022534 0
-0.152199 -0.023715 0
-0.164974 -0.025000 0
-0.176601 -0.026407 0
-0.186952 -0.027917 0
-0.195818 -0.029485 0
-0.202797 -0.031030 0
-0.207192 -0.032423 0
-0.208044 -0.033368 0
-0.203369 -0.033581 0
-0.191319 -0.032773 0
-0.170656 -0.029944 0
-0.143660 -0.024846 0
-0.112179 -0.017610 0
-0.077221 -0.007204 0
-0.045685 0.003304 0
-0.018768 0.011159 0
0.003552 0.017596 0
0.021359 0.021390 0
0.034324 0.020031 0
0.041511 0.015097 0
0.044294 0.010359 0
0.044308 0.006912 0
0.042391 0.004378 0
0.039289 0.002306 0
0.035584 0.000325 0
0.031649 -0.001716 0
0.027478 -0.003654 0
0.022887 -0.005224 0
0.017998 -0.006110 0
0.013072 -0.006023 0
0.008406 -0.004721 0
0.004257 -0.001836 0
0.001107 0.002125 0
-0.000159 0.004209 0
0.000000 -0.000004 0
0.000000 0.000006 0
0.005188 0.076828 0
0.011030 0.099298 0
0.013286 0.098378 0
0.007122 0.073752 0
-0.007267 0.037582 0
-0.014602 0.016004 0
-0.021649 0.009923 0
-0.032507 0.006401 0
-0.045518 0.003211 0
-0.059796 0.000675 0
-0.074846 -0.001360 0
-0.090217 -0.003150 0
-0.105514 -0.004887 0
-0.120409 -0.006683 0
-0.134641 -0.008602 0
-0.148023 -0.010699 0
-0.160455 -0.012991 0
-0.171885 -0.015462 0
-0.182296 -0.018082 0
-0.191642 -0.020817 0
-0.199821 -0.023621 0
-0.206700 -0.026422 0
-0.212100 -0.029123 0
-0.215692 -0.031650 0
-0.217161 -0.033893 0
-0.216089 -0.035616 0
-0.211380 -0.036659 0
-0.202547 -0.036760 0
-0.188785 -0.035529 0
-0.168671 -0.032878 0
-0.144475 -0.028457 0
-0.117613 -0.022243 0
-0.089117 -0.014808 0
-0.061517 -0.006360 0
-0.038275 0.000978 0
-0.020038 0.005117 0
-0.006357 0.006949 0
0.003489 0.007427 0
0.010102 0.006710 0
0.014005 0.005049 0
0.015593 0.002964 0
0.015262 0.001123 0
0.013448 -0.000235 0
0.010544 -0.001086 0
0.007096 -0.001220 0
0.003646 -0.000370 0
0.000765 0.001584 0
-0.000772 0.003849 0
-0.000657 0.004348 0
0.000000 -0.000004 0
0.000000 0.000006 0
0.004946 0.071289 0
0.010880 0.094719 0
0.014558 0.098819 0
0.011975 0.083153 0
-0.001012 0.049419 0
-0.012281 0.023984 0
-0.019665 0.018749 0
-0.030278 0.018156 0
-0.043049 0.016754 0
-0.056925 0.015248 0
-0.071349 0.013717 0
-0.085916 0.012017 0
-0.100345 0.010047 0
-0.114447 0.007743 0
-0.128088 0.005081 0
-0.141169 0.002098 0
-0.153612 -0.001137 0
-0.165295 -0.004565 0
-0.176067 -0.008160 0
-0.185790 -0.011959 0
-0.194415 -0.015972 0
-0.201893 -0.020143 0
-0.208066 -0.024376 0
-0.212766 -0.028519 0
-0.215876 -0.032376 0
-0.217302 -0.035725 0
-0.216914 -0.038387 0
-0.214696 -0.040206 0
-0.210508 -0.041080 0
-0.204168 -0.041006 0
-0.195626 -0.039899 0
-0.184468 -0.037761 0
-0.170598 -0.034707 0
-0.154016 -0.030811 0
-0.134604 -0.026382 0
-0.114180 -0.021560 0
-0.094484 -0.016616 0
-0.076229 -0.012081 0
-0.059986 -0.008210 0
-0.046178 -0.005166 0
-0.035025 -0.002972 0
-0.026372 -0.001510 0
-0.019766 -0.000506 0
-0.014876 0.000243 0
-0.011338 0.000874 0
-0.008726 0.001610 0
-0.006490 0.002582 0
-0.004096 0.003546 0
-0.001591 0.003438 0
0.000000 -0.000005 0
0.000000 0.000005 0
0.004600 0.065948 0
0.010324 0.089685 0
0.014690 0.097282 0
0.014557 0.089323 0
0.005316 0.061838 0
-0.009210 0.034656 0
-0.017872 0.027920 0
-0.028464 0.029785 0
-0.040934 0.029858 0
-0.054140 0.028976 0
-0.067607 0.027631 0
-0.081049 0.025846 0
-0.094305 0.023644 0
-0.107302 0.021060 0
-0.120022 0.018121 0
-0.132450 0.014826 0
-0.144522 0.011134 0
-0.156124 0.006993 0
-0.167103 0.002414 0
-0.177300 -0.002468 0
-0.186580 -0.007518 0
-0.194809 -0.012771 0
-0.201999 -0.018250 0
-0.208044 -0.023838 0
-0.212741 -0.029357 0
-0.215853 -0.034578 0
-0.217139 -0.039264 0
-0.216419 -0.043166 0
-0.213570 -0.046058 0
-0.208605 -0.047760 0
-0.201679 -0.048156 0
-0.192950 -0.047271 0
-0.182699 -0.045260 0
-0.171198 -0.042355 0
-0.158676 -0.038859 0
-0.145471 -0.035003 0
-0.131657 -0.031001 0
-0.117513 -0.027071 0
-0.103334 -0.023341 0
-0.089421 -0.019912 0
-0.076077 -0.016842 0
-0.063551 -0.014135 0
-0.052018 -0.011730 0
-0.041498 -0.009514 0
-0.032031 -0.007370 0
-0.023575 -0.005217 0
-0.016016 -0.003047 0
-0.009234 -0.001050 0
-0.003444 0.000252 0
0.000000 -0.000009 0
0.000000 0.000004 0
0.004184 0.060965 0
0.009509 0.084629 0
0.014043 0.094587 0
0.015425 0.092527 0
0.009674 0.073186 0
-0.005030 0.047173 0
-0.015718 0.038002 0
-0.026342 0.041217 0
-0.038420 0.042431 0
-0.050966 0.041922 0
-0.063606 0.040626 0
-0.076149 0.038715 0
-0.088489 0.036300 0
-0.100571 0.033459 0
-0.112361 0.030229 0
-0.123828 0.026599 0
-0.134942 0.022538 0
-0.145694 0.018016 0
-0.156083 0.013016 0
-0.166063 0.007519 0
-0.175476 0.001538 0
-0.184132 -0.004724 0
-0.191914 -0.011141 0
-0.198802 -0.017776 0
-0.204726 -0.024567 0
-0.209442 -0.031328 0
-0.212678 -0.037821 0
-0.214150 -0.043775 0