# vtk DataFile Version 2.0
generated by CFD-lab course output (written by Tobias Neckel) 
ASCII

DATASET STRUCTURED_GRID
DIMENSIONS  51 51 1 
POINTS 2601 float

0.000000 0.000000 0
0.020000 0.000000 0
0.040000 0.000000 0
0.060000 0.000000 0
0.080000 0.000000 0
0.100000 0.000000 0
0.120000 0.000000 0
0.140000 0.000000 0
0.160000 0.000000 0
0.180000 0.000000 0
0.200000 0.000000 0
0.220000 0.000000 0
0.240000 0.000000 0
0.260000 0.000000 0
0.280000 0.000000 0
0.300000 0.000000 0
0.320000 0.000000 0
0.340000 0.000000 0
0.360000 0.000000 0
0.380000 0.000000 0
0.400000 0.000000 0
0.420000 0.000000 0
0.440000 0.000000 0
0.460000 0.000000 0
0.480000 0.000000 0
0.500000 0.000000 0
0.520000 0.000000 0
0.540000 0.000000 0
0.560000 0.000000 0
0.580000 0.000000 0
0.600000 0.000000 0
0.620000 0.000000 0
0.640000 0.000000 0
0.660000 0.000000 0
0.680000 0.000000 0
0.700000 0.000000 0
0.720000 0.000000 0
0.740000 0.000000 0
0.760000 0.000000 0
0.780000 0.000000 0
0.800000 0.000000 0
0.820000 0.000000 0
0.840000 0.000000 0
0.860000 0.000000 0
0.880000 0.000000 0
0.900000 0.000000 0
0.920000 0.000000 0
0.940000 0.000000 0
0.960000 0.000000 0
0.980000 0.000000 0
1.000000 0.000000 0
0.000000 0.020000 0
0.020000 0.020000 0
0.040000 0.020000 0
0.060000 0.020000 0
0.080000 0.020000 0
0.100000 0.020000 0
0.120000 0.020000 0
0.140000 0.020000 0
0.160000 0.020000 0
0.180000 0.020000 0
0.200000 0.020000 0
0.220000 0.020000 0
0.240000 0.020000 0
0.260000 0.020000 0
0.280000 0.020000 0
0.300000 0.020000 0
0.320000 0.020000 0
0.340000 0.020000 0
0.360000 0.020000 0
0.380000 0.020000 0
0.400000 0.020000 0
0.420000 0.020000 0
0.440000 0.020000 0
0.460000 0.020000 0
0.480000 0.020000 0
0.500000 0.020000 0
0.520000 0.020000 0
0.540000 0.020000 0
0.560000 0.020000 0
0.580000 0.020000 0
0.600000 0.020000 0
0.620000 0.020000 0
0.640000 0.020000 0
0.660000 0.020000 0
0.680000 0.020000 0
0.700000 0.020000 0
0.720000 0.020000 0
0.740000 0.020000 0
0.760000 0.020000 0
0.780000 0.020000 0
0.800000 0.020000 0
0.820000 0.020000 0
0.840000 0.020000 0
0.860000 0.020000 0
0.880000 0.020000 0
0.900000 0.020000 0
0.920000 0.020000 0
0.940000 0.020000 0
0.960000 0.020000 0
0.980000 0.020000 0
1.000000 0.020000 0
0.000000 0.040000 0
0.020000 0.040000 0
0.040000 0.040000 0
0.060000 0.040000 0
0.080000 0.040000 0
0.100000 0.040000 0
0.120000 0.040000 0
0.140000 0.040000 0
0.160000 0.040000 0
0.180000 0.040000 0
0.200000 0.040000 0
0.220000 0.040000 0
0.240000 0.040000 0
0.260000 0.040000 0
0.280000 0.040000 0
0.300000 0.040000 0
0.320000 0.040000 0
0.340000 0.040000 0
0.360000 0.040000 0
0.380000 0.040000 0
0.400000 0.040000 0
0.420000 0.040000 0
0.440000 0.040000 0
0.460000 0.040000 0
0.480000 0.040000 0
0.500000 0.040000 0
0.520000 0.040000 0
0.540000 0.040000 0
0.560000 0.040000 0
0.580000 0.040000 0
0.600000 0.040000 0
0.620000 0.040000 0
0.640000 0.040000 0
0.660000 0.040000 0
0.680000 0.040000 0
0.700000 0.040000 0
0.720000 0.040000 0
0.740000 0.040000 0
0.760000 0.040000 0
0.780000 0.040000 0
0.800000 0.040000 0
0.820000 0.040000 0
0.840000 0.040000 0
0.860000 0.040000 0
0.880000 0.040000 0
0.900000 0.040000 0
0.920000 0.040000 0
0.940000 0.040000 0
0.960000 0.040000 0
0.980000 0.040000 0
1.000000 0.040000 0
0.000000 0.060000 0
0.020000 0.060000 0
0.040000 0.060000 0
0.060000 0.060000 0
0.080000 0.060000 0
0.100000 0.060000 0
0.120000 0.060000 0
0.140000 0.060000 0
0.160000 0.060000 0
0.180000 0.060000 0
0.200000 0.060000 0
0.220000 0.060000 0
0.240000 0.060000 0
0.260000 0.060000 0
0.280000 0.060000 0
0.300000 0.060000 0
0.320000 0.060000 0
0.340000 0.060000 0
0.360000 0.060000 0
0.380000 0.060000 0
0.400000 0.060000 0
0.420000 0.060000 0
0.440000 0.060000 0
0.460000 0.060000 0
0.480000 0.060000 0
0.500000 0.060000 0
0.520000 0.060000 0
0.540000 0.060000 0
0.560000 0.060000 0
0.580000 0.060000 0
0.600000 0.060000 0
0.620000 0.060000 0
0.640000 0.060000 0
0.660000 0.060000 0
0.680000 0.060000 0
0.700000 0.060000 0
0.720000 0.060000 0
0.740000 0.060000 0
0.760000 0.060000 0
0.780000 0.060000 0
0.800000 0.060000 0
0.820000 0.060000 0
0.840000 0.060000 0
0.860000 0.060000 0
0.880000 0.060000 0
0.900000 0.060000 0
0.920000 0.060000 0
0.940000 0.060000 0
0.960000 0.060000 0
0.980000 0.060000 0
1.000000 0.060000 0
0.000000 0.080000 0
0.020000 0.080000 0
0.040000 0.080000 0
0.060000 0.080000 0
0.080000 0.080000 0
0.100000 0.080000 0
0.120000 0.080000 0
0.140000 0.080000 0
0.160000 0.080000 0
0.180000 0.080000 0
0.200000 0.080000 0
0.220000 0.080000 0
0.240000 0.080000 0
0.260000 0.080000 0
0.280000 0.080000 0
0.300000 0.080000 0
0.320000 0.080000 0
0.340000 0.080000 0
0.360000 0.080000 0
0.380000 0.080000 0
0.400000 0.080000 0
0.420000 0.080000 0
0.440000 0.080000 0
0.460000 0.080000 0
0.480000 0.080000 0
0.500000 0.080000 0
0.520000 0.080000 0
0.540000 0.080000 0
0.560000 0.080000 0
0.580000 0.080000 0
0.600000 0.080000 0
0.620000 0.080000 0
0.640000 0.080000 0
0.660000 0.080000 0
0.680000 0.080000 0
0.700000 0.080000 0
0.720000 0.080000 0
0.740000 0.080000 0
0.760000 0.080000 0
0.780000 0.080000 0
0.800000 0.080000 0
0.820000 0.080000 0
0.840000 0.080000 0
0.860000 0.080000 0
0.880000 0.080000 0
0.900000 0.080000 0
0.920000 0.080000 0
0.940000 0.080000 0
0.960000 0.080000 0
0.980000 0.080000 0
1.000000 0.080000 0
0.000000 0.100000 0
0.020000 0.100000 0
0.040000 0.100000 0
0.060000 0.100000 0
0.080000 0.100000 0
0.100000 0.100000 0
0.120000 0.100000 0
0.140000 0.100000 0
0.160000 0.100000 0
0.180000 0.100000 0
0.200000 0.100000 0
0.220000 0.100000 0
0.240000 0.100000 0
0.260000 0.100000 0
0.280000 0.100000 0
0.300000 0.100000 0
0.320000 0.100000 0
0.340000 0.100000 0
0.360000 0.100000 0
0.380000 0.100000 0
0.400000 0.100000 0
0.420000 0.100000 0
0.440000 0.100000 0
0.460000 0.100000 0
0.480000 0.100000 0
0.500000 0.100000 0
0.520000 0.100000 0
0.540000 0.100000 0
0.560000 0.100000 0
0.580000 0.100000 0
0.600000 0.100000 0
0.620000 0.100000 0
0.640000 0.100000 0
0.660000 0.100000 0
0.680000 0.100000 0
0.700000 0.100000 0
0.720000 0.100000 0
0.740000 0.100000 0
0.760000 0.100000 0
0.780000 0.100000 0
0.800000 0.100000 0
0.820000 0.100000 0
0.840000 0.100000 0
0.860000 0.100000 0
0.880000 0.100000 0
0.900000 0.100000 0
0.920000 0.100000 0
0.940000 0.100000 0
0.960000 0.100000 0
0.980000 0.100000 0
1.000000 0.100000 0
0.000000 0.120000 0
0.020000 0.120000 0
0.040000 0.120000 0
0.060000 0.120000 0
0.080000 0.120000 0
0.100000 0.120000 0
0.120000 0.120000 0
0.140000 0.120000 0
0.160000 0.120000 0
0.180000 0.120000 0
0.200000 0.120000 0
0.220000 0.120000 0
0.240000 0.120000 0
0.260000 0.120000 0
0.280000 0.120000 0
0.300000 0.120000 0
0.320000 0.120000 0
0.340000 0.120000 0
0.360000 0.120000 0
0.380000 0.120000 0
0.400000 0.120000 0
0.420000 0.120000 0
0.440000 0.120000 0
0.460000 0.120000 0
0.480000 0.120000 0
0.500000 0.120000 0
0.520000 0.120000 0
0.540000 0.120000 0
0.560000 0.120000 0
0.580000 0.120000 0
0.600000 0.120000 0
0.620000 0.120000 0
0.640000 0.120000 0
0.660000 0.120000 0
0.680000 0.120000 0
0.700000 0.120000 0
0.720000 0.120000 0
0.740000 0.120000 0
0.760000 0.120000 0
0.780000 0.120000 0
0.800000 0.120000 0
0.820000 0.120000 0
0.840000 0.120000 0
0.860000 0.120000 0
0.880000 0.120000 0
0.900000 0.120000 0
0.920000 0.120000 0
0.940000 0.120000 0
0.960000 0.120000 0
0.980000 0.120000 0
1.000000 0.120000 0
0.000000 0.140000 0
0.020000 0.140000 0
0.040000 0.140000 0
0.060000 0.140000 0
0.080000 0.140000 0
0.100000 0.140000 0
0.120000 0.140000 0
0.140000 0.140000 0
0.160000 0.140000 0
0.180000 0.140000 0
0.200000 0.140000 0
0.220000 0.140000 0
0.240000 0.140000 0
0.260000 0.140000 0
0.280000 0.140000 0
0.300000 0.140000 0
0.320000 0.140000 0
0.340000 0.140000 0
0.360000 0.140000 0
0.380000 0.140000 0
0.400000 0.140000 0
0.420000 0.140000 0
0.440000 0.140000 0
0.460000 0.140000 0
0.480000 0.140000 0
0.500000 0.140000 0
0.520000 0.140000 0
0.540000 0.140000 0
0.560000 0.140000 0
0.580000 0.140000 0
0.600000 0.140000 0
0.620000 0.140000 0
0.640000 0.140000 0
0.660000 0.140000 0
0.680000 0.140000 0
0.700000 0.140000 0
0.720000 0.140000 0
0.740000 0.140000 0
0.760000 0.140000 0
0.780000 0.140000 0
0.800000 0.140000 0
0.820000 0.140000 0
0.840000 0.140000 0
0.860000 0.140000 0
0.880000 0.140000 0
0.900000 0.140000 0
0.920000 0.140000 0
0.940000 0.140000 0
0.960000 0.140000 0
0.980000 0.140000 0
1.000000 0.140000 0
0.000000 0.160000 0
0.020000 0.160000 0
0.040000 0.160000 0
0.060000 0.160000 0
0.080000 0.160000 0
0.100000 0.160000 0
0.120000 0.160000 0
0.140000 0.160000 0
0.160000 0.160000 0
0.180000 0.160000 0
0.200000 0.160000 0
0.220000 0.160000 0
0.240000 0.160000 0
0.260000 0.160000 0
0.280000 0.160000 0
0.300000 0.160000 0
0.320000 0.160000 0
0.340000 0.160000 0
0.360000 0.160000 0
0.380000 0.160000 0
0.400000 0.160000 0
0.420000 0.160000 0
0.440000 0.160000 0
0.460000 0.160000 0
0.480000 0.160000 0
0.500000 0.160000 0
0.520000 0.160000 0
0.540000 0.160000 0
0.560000 0.160000 0
0.580000 0.160000 0
0.600000 0.160000 0
0.620000 0.160000 0
0.640000 0.160000 0
0.660000 0.160000 0
0.680000 0.160000 0
0.700000 0.160000 0
0.720000 0.160000 0
0.740000 0.160000 0
0.760000 0.160000 0
0.780000 0.160000 0
0.800000 0.160000 0
0.820000 0.160000 0
0.840000 0.160000 0
0.860000 0.160000 0
0.880000 0.160000 0
0.900000 0.160000 0
0.920000 0.160000 0
0.940000 0.160000 0
0.960000 0.160000 0
0.980000 0.160000 0
1.000000 0.160000 0
0.000000 0.180000 0
0.020000 0.180000 0
0.040000 0.180000 0
0.060000 0.180000 0
0.080000 0.180000 0
0.100000 0.180000 0
0.120000 0.180000 0
0.140000 0.180000 0
0.160000 0.180000 0
0.180000 0.180000 0
0.200000 0.180000 0
0.220000 0.180000 0
0.240000 0.180000 0
0.260000 0.180000 0
0.280000 0.180000 0
0.300000 0.180000 0
0.320000 0.180000 0
0.340000 0.180000 0
0.360000 0.180000 0
0.380000 0.180000 0
0.400000 0.180000 0
0.420000 0.180000 0
0.440000 0.180000 0
0.460000 0.180000 0
0.480000 0.180000 0
0.500000 0.180000 0
0.520000 0.180000 0
0.540000 0.180000 0
0.560000 0.180000 0
0.580000 0.180000 0
0.600000 0.180000 0
0.620000 0.180000 0
[...]
POINT_DATA 2601 

VECTORS velocity float
0.000000 0.000000 0
-0.000003 0.000000 0
-0.000007 0.000000 0
-0.000011 0.000000 0
-0.000014 0.000000 0
-0.000016 0.000000 0
-0.000016 0.000000 0
-0.000013 0.000000 0
-0.000006 0.000000 0
0.000004 0.000000 0
0.000018 0.000000 0
0.000034 0.000000 0
0.000051 0.000000 0
0.000067 0.000000 0
0.000081 0.000000 0
0.000093 0.000000 0
0.000101 0.000000 0
0.000107 0.000000 0
0.000110 0.000000 0
0.000111 0.000000 0
0.000109 0.000000 0
0.000106 0.000000 0
0.000102 0.000000 0
0.000096 0.000000 0
0.000089 0.000000 0
0.000081 0.000000 0
0.000073 0.000000 0
0.000065 0.000000 0
0.000057 0.000000 0
0.000048 0.000000 0
0.000040 0.000000 0
0.000031 0.000000 0
0.000024 0.000000 0
0.000016 0.000000 0
0.000010 0.000000 0
0.000004 0.000000 0
-0.000001 0.000000 0
-0.000004 0.000000 0
-0.000007 0.000000 0
-0.000009 0.000000 0
-0.000011 0.000000 0
-0.000011 0.000000 0
-0.000011 0.000000 0
-0.000010 0.000000 0
-0.000009 0.000000 0
-0.000008 0.000000 0
-0.000007 0.000000 0
-0.000005 0.000000 0
-0.000004 0.000000 0
-0.000002 0.000000 0
0.000000 0.000000 0
0.000000 0.000003 0
-0.000505 0.000491 0
-0.001277 0.000614 0
-0.002091 0.000596 0
-0.002842 0.000500 0
-0.003453 0.000342 0
-0.003857 0.000123 0
-0.003976 -0.000159 0
-0.003734 -0.000497 0
-0.003066 -0.000875 0
-0.001930 -0.001259 0
-0.000332 -0.001603 0
0.001672 -0.001861 0
0.003972 -0.002019 0
0.006441 -0.002078 0
0.008958 -0.002045 0
0.011419 -0.001939 0
0.013743 -0.001779 0
0.015875 -0.001582 0
0.017777 -0.001362 0
0.019422 -0.001129 0
0.020798 -0.000889 0
0.021896 -0.000649 0
0.022714 -0.000413 0
0.023255 -0.000185 0
0.023526 0.000029 0
0.023536 0.000228 0
0.023298 0.000413 0
0.022830 0.000583 0
0.022151 0.000737 0
0.021283 0.000871 0
0.020248 0.000985 0
0.019076 0.001075 0
0.017793 0.001140 0
0.016432 0.001180 0
0.015022 0.001195 0
0.013595 0.001184 0
0.012180 0.001152 0
0.010800 0.001101 0
0.009476 0.001036 0
0.008223 0.000962 0
0.007050 0.000884 0
0.005960 0.000806 0
0.004951 0.000733 0
0.004020 0.000666 0
0.003157 0.000609 0
0.002351 0.000564 0
0.001589 0.000526 0
0.000870 0.000461 0
0.000261 0.000269 0
0.000000 -0.000002 0
0.000000 0.000007 0
-0.000676 0.001272 0
-0.001699 0.001583 0
-0.002791 0.001562 0
-0.003826 0.001359 0
-0.004721 0.001011 0
-0.005396 0.000519 0
-0.005759 -0.000126 0
-0.005709 -0.000914 0
-0.005148 -0.001808 0
-0.004005 -0.002737 0
-0.002258 -0.003604 0
0.000051 -0.004306 0
0.002816 -0.004771 0
0.005860 -0.004987 0
0.009010 -0.004978 0
0.012121 -0.004785 0
0.015081 -0.004456 0
0.017815 -0.004032 0
0.020274 -0.003546 0
0.022430 -0.003020 0
0.024265 -0.002472 0
0.025772 -0.001915 0
0.026945 -0.001358 0
0.027787 -0.000810 0
0.028302 -0.000278 0
0.028496 0.000230 0
0.028381 0.000707 0
0.027975 0.001149 0
0.027298 0.001550 0
0.026377 0.001905 0
0.025239 0.002208 0
0.023915 0.002457 0
0.022441 0.002645 0
0.020853 0.002772 0
0.019189 0.002837 0
0.017487 0.002844 0
0.015781 0.002796 0
0.014102 0.002704 0
0.012475 0.002577 0
0.010918 0.002427 0
0.009443 0.002264 0
0.008055 0.002098 0
0.006755 0.001940 0
0.005537 0.001795 0
0.004394 0.001669 0
0.003313 0.001567 0
0.002281 0.001480 0
0.001297 0.001329 0
0.000437 0.000871 0
0.000000 -0.000004 0
0.000000 0.000012 0
-0.000764 0.002188 0
-0.001928 0.002728 0
-0.003183 0.002721 0
-0.004401 0.002428 0
-0.005506 0.001910 0
-0.006422 0.001159 0
-0.007056 0.000153 0
-0.007285 -0.001109 0
-0.006978 -0.002579 0
-0.006013 -0.004149 0
-0.004318 -0.005659 0
-0.001904 -0.006936 0
0.001131 -0.007827 0
0.004592 -0.008271 0
0.008224 -0.008306 0
0.011811 -0.008009 0
0.015192 -0.007471 0
0.018268 -0.006774 0
0.020989 -0.005976 0
0.023334 -0.005119 0
0.025300 -0.004230 0
0.026891 -0.003328 0
0.028115 -0.002427 0
0.028982 -0.001541 0
0.029503 -0.000679 0
0.029692 0.000150 0
0.029563 0.000935 0
0.029135 0.001667 0
0.028429 0.002335 0
0.027469 0.002932 0
0.026283 0.003447 0
0.024904 0.003873 0
0.023368 0.004203 0
0.021715 0.004432 0
0.019984 0.004560 0
0.018215 0.004592 0
0.016444 0.004537 0
0.014704 0.004407 0
0.013019 0.004220 0
0.011408 0.003994 0
0.009882 0.003747 0
0.008445 0.003495 0
0.007096 0.003251 0
0.005830 0.003028 0
0.004639 0.002834 0
0.003509 0.002676 0
0.002428 0.002541 0
0.001392 0.002305 0
0.000478 0.001567 0
0.000000 -0.000005 0
0.000000 0.000017 0
-0.000827 0.003197 0
-0.002099 0.004000 0
-0.003485 0.004032 0
-0.004864 0.003680 0
-0.006173 0.003031 0
-0.007350 0.002068 0
-0.008308 0.000736 0
-0.008912 -0.000992 0
-0.008991 -0.003081 0
-0.008354 -0.005397 0
-0.006847 -0.007713 0
-0.004406 -0.009755 0
-0.001101 -0.011266 0
0.002885 -0.012078 0
0.007215 -0.012196 0
0.011540 -0.011752 0
0.015584 -0.010913 0
0.019179 -0.009828 0
0.022252 -0.008611 0
0.024797 -0.007330 0
0.026842 -0.006028 0
0.028425 -0.004729 0
0.029579 -0.003447 0
0.030337 -0.002196 0
0.030723 -0.000987 0
0.030764 0.000170 0
0.030482 0.001264 0
0.029900 0.002284 0
0.029043 0.003217 0
0.027937 0.004051 0
0.026613 0.004774 0
0.025107 0.005371 0
0.023456 0.005835 0
0.021704 0.006157 0
0.019892 0.006338 0
0.018062 0.006383 0
0.016251 0.006307 0
0.014487 0.006129 0
0.012796 0.005873 0
0.011190 0.005564 0
0.009679 0.005227 0
0.008263 0.004884 0
0.006939 0.004555 0
0.005700 0.004252 0
0.004534 0.003991 0
0.003430 0.003779 0
0.002372 0.003598 0
0.001358 0.003279 0
0.000464 0.002262 0
0.000000 -0.000007 0
0.000000 0.000023 0
-0.000881 0.004284 0
-0.002246 0.005384 0
-0.003750 0.005484 0
-0.005283 0.005115 0
-0.006801 0.004395 0
-0.008264 0.003292 0
-0.009607 0.001714 0
-0.010702 -0.000426 0
-0.011341 -0.003138 0
-0.011260 -0.006294 0
-0.010192 -0.009607 0
-0.007957 -0.012681 0
-0.004535 -0.015117 0
-0.000075 -0.016587 0
0.005133 -0.016960 0
0.010557 -0.016376 0
0.015716 -0.015109 0
0.020267 -0.013441 0
0.024025 -0.011594 0
0.026967 -0.009709 0
0.029167 -0.007856 0
0.030731 -0.006063 0
0.031757 -0.004338 0
0.032323 -0.002684 0
0.032484 -0.001104 0
0.032283 0.000393 0
0.031754 0.001800 0
0.030925 0.003107 0
0.029826 0.004299 0
0.028488 0.005362 0
0.026945 0.006277 0
0.025237 0.007030 0
0.023408 0.007606 0
0.021505 0.007996 0
0.019574 0.008202 0
0.017659 0.008234 0
0.015794 0.008112 0
0.014007 0.007862 0
0.012317 0.007517 0
0.010732 0.007111 0
0.009256 0.006674 0
0.007884 0.006234 0
0.006610 0.005815 0
0.005422 0.005433 0
0.004308 0.005104 0
0.003254 0.004838 0
0.002246 0.004613 0
0.001279 0.004213 0
0.000432 0.002925 0
0.000000 -0.000008 0
0.000000 0.000028 0
-0.000926 0.005439 0
-0.002371 0.006868 0
-0.003982 0.007069 0
-0.005658 0.006730 0
-0.007378 0.006012 0
-0.009134 0.004872 0
-0.010896 0.003173 0
-0.012573 0.000743 0
-0.013955 -0.002522 0
-0.014707 -0.006546 0
-0.014440 -0.011016 0
-0.012825 -0.015411 0
-0.009707 -0.019147 0
-0.005146 -0.021746 0
0.000658 -0.022827 0
0.007314 -0.022334 0
0.014048 -0.020622 0
0.020238 -0.018137 0
0.025388 -0.015310 0
0.029282 -0.012471 0
0.031976 -0.009791 0
0.033666 -0.007317 0
0.034578 -0.005037 0
0.034897 -0.002921 0
0.034752 -0.000946 0
0.034225 0.000902 0
0.033368 0.002623 0
0.032216 0.004212 0
0.030804 0.005655 0
0.029165 0.006933 0
0.027340 0.008025 0
0.025373 0.008908 0
0.023318 0.009566 0
0.021226 0.009990 0
0.019149 0.010184 0
0.017130 0.010164 0
0.015205 0.009959 0
0.013395 0.009606 0
0.011712 0.009148 0
0.010158 0.008625 0
0.008729 0.008075 0
0.007413 0.007531 0
0.006201 0.007017 0
0.005077 0.006554 0
0.004027 0.006158 0
0.003036 0.005841 0
0.002087 0.005573 0
0.001181 0.005092 0
0.000392 0.003542 0
0.000000 -0.000009 0
0.000000 0.000034 0
-0.000961 0.006652 0
-0.002471 0.008438 0
-0.004170 0.008770 0
-0.005969 0.008510 0
-0.007865 0.007870 0
-0.009886 0.006810 0
-0.012052 0.005153 0
-0.014336 0.002633 0
-0.016583 -0.001003 0
-0.018421 -0.005808 0
-0.019337 -0.011488 0
-0.018854 -0.017413 0
-0.016665 -0.022795 0
-0.012707 -0.026952 0
-0.007106 -0.029420 0
-0.000022 -0.029765 0
0.008135 -0.028032 0
0.016403 -0.024779 0
0.023902 -0.020637 0
0.029885 -0.016296 0
0.034065 -0.012238 0
0.036541 -0.008663 0
0.037670 -0.005567 0
0.037853 -0.002856 0
0.037394 -0.000432 0
0.036488 0.001778 0
0.035233 0.003809 0
0.033688 0.005670 0
0.031895 0.007350 0
0.029893 0.008826 0
0.027729 0.010069 0
0.025457 0.011052 0
0.023137 0.011753 0
0.020831 0.012165 0
0.018593 0.012298 0
0.016469 0.012178 0
0.014488 0.011847 0
0.012665 0.011355 0
0.011001 0.010754 0
0.009491 0.010095 0
0.008121 0.009419 0
0.006874 0.008762 0
0.005735 0.008151 0
0.004685 0.007607 0
0.003708 0.007145 0
0.002788 0.006778 0
0.001908 0.006468 0
0.001070 0.005908 0
0.000348 0.004106 0
0.000000 -0.000010 0
0.000000 0.000039 0
-0.000981 0.007908 0
-0.002538 0.010076 0
-0.004303 0.010565 0
-0.006192 0.010424 0
-0.008222 0.009928 0
-0.010449 0.009059 0
-0.012944 0.007623 0
-0.015766 0.005274 0
-0.018865 0.001564 0
-0.021925 -0.003792 0
-0.024312 -0.010583 0
-0.025394 -0.018082 0
-0.024731 -0.025294 0
-0.022153 -0.031305 0
-0.017696 -0.035512 0
-0.011468 -0.037574 0
-0.003450 -0.037044 0
0.005968 -0.033903 0
0.015962 -0.028792 0
0.025120 -0.022632 0
0.032443 -0.016444 0
0.037327 -0.010920 0
0.039852 -0.006347 0
0.040561 -0.002644 0
0.040077 0.000420 0
0.038877 0.003063 0
0.037220 0.005422 0
0.035238 0.007549 0
0.033007 0.009449 0
0.030584 0.011098 0
0.028029 0.012461 0
0.025408 0.013500 0
0.022795 0.014193 0
0.020260 0.014534 0
0.017861 0.014545 0
0.015641 0.014269 0
0.013621 0.013763 0
0.011803 0.013093 0
0.010179 0.012321 0
0.008731 0.011506 0
0.007435 0.010692 0
0.006271 0.009917 0
0.005216 0.009207 0
0.004250 0.008581 0
0.003356 0.008055 0
0.002514 0.007641 0
0.001711 0.007291 0
0.000948 0.006652 0
0.000299 0.004611 0
0.000000 -0.000011 0
0.000000 0.000044 0
-0.000987 0.009188 0
-0.002569 0.011758 0
-0.004371 0.012423 0
-0.006315 0.012429 0
-0.008425 0.012126 0
-0.010776 0.011531 0
-0.013482 0.010470 0
-0.016680 0.008554 0
-0.020460 0.005157 0
-0.024665 -0.000361 0
-0.028646 -0.008019 0
-0.031507 -0.016993 0
-0.032703 -0.026035 0
-0.031996 -0.033987 0
-0.029362 -0.040104 0
-0.024839 -0.044010 0
-0.018455 -0.045467 0
-0.010009 -0.044189 0
0.000315 -0.039787 0
0.011932 -0.032776 0
0.023123 -0.024444 0
0.032304 -0.016069 0
0.038410 -0.008800 0
0.041404 -0.003082 0
0.041951 0.001251 0
0.040947 0.004635 0
0.039085 0.007448 0
0.036716 0.009883 0
0.034030 0.012003 0
0.031142 0.013803 0
0.028150 0.015245 0
0.025145 0.016286 0
0.022219 0.016902 0
0.019454 0.017099 0
0.016909 0.016916 0
0.014617 0.016418 0
0.012585 0.015685 0
0.010802 0.014796 0
0.009243 0.013827 0
0.007877 0.012839 0
0.006675 0.011878 0
0.005607 0.010981 0
0.004648 0.010172 0
0.003777 0.009467 0
0.002972 0.008881 0
0.002218 0.008422 0
0.001498 0.008034 0
0.000817 0.007320 0
0.000248 0.005053 0
0.000000 -0.000012 0
0.000000 0.000048 0
-0.000976 0.010474 0
-0.002560 0.013460 0
-0.004372 0.014311 0
-0.006332 0.014478 0
-0.008467 0.014390 0
-0.010860 0.014116 0
-0.013643 0.013528 0
-0.017009 0.012252 0
-0.021179 0.009548 0
-0.026216 0.004395 0
-0.031651 -0.003740 0
-0.036323 -0.014024 0
-0.039418 -0.024803 0
-0.040676 -0.034645 0
-0.040058 -0.042668 0
-0.037564 -0.048480 0
-0.033153 -0.051873 0
-0.026756 -0.052672 0
-0.018237 -0.050730 0
-0.007335 -0.045439 0
0.005351 -0.036815 0
0.018612 -0.026207 0
0.029784 -0.015448 0
0.037446 -0.006185 0
0.041185 0.000876 0
0.041704 0.005928 0
0.040314 0.009652 0
0.037849 0.012605 0
0.034799 0.015023 0
0.031449 0.016978 0
0.027992 0.018458 0
0.024581 0.019431 0
0.021340 0.019883 0
0.018361 0.019844 0
0.015701 0.019382 0
0.013376 0.018592 0
0.011373 0.017578 0
0.009659 0.016435 0
0.008193 0.015246 0
0.006934 0.014073 0
0.005843 0.012962 0
0.004886 0.011943 0
0.004035 0.011037 0
0.003267 0.010257 0
0.002561 0.009614 0
0.001900 0.009115 0
0.001270 0.008692 0
0.000677 0.007903 0
0.000194 0.005428 0
0.000000 -0.000013 0
0.000000 0.000051 0
-0.000949 0.011746 0
-0.002512 0.015154 0
-0.004307 0.016195 0
-0.006248 0.016525 0
-0.008360 0.016654 0
-0.010720 0.016707 0
-0.013459 0.016619 0
-0.016788 0.016091 0
-0.021014 0.014365 0
-0.026420 0.010112 0
-0.032855 0.002089 0
-0.039249 -0.009226 0
-0.044141 -0.021682 0
-0.047223 -0.033345 0
-0.048490 -0.043215 0
-0.047939 -0.050914 0
-0.045483 -0.056274 0
-0.041003 -0.059103 0
-0.034435 -0.059206 0
-0.025805 -0.056362 0
-0.014725 -0.050390 0
-0.001374 -0.040503 0
0.013246 -0.027635 0
0.026169 -0.014484 0
0.035166 -0.003008 0
0.039503 0.005506 0
0.039911 0.011303 0
0.038084 0.015398 0
0.035009 0.018404 0
0.031320 0.020609 0
0.027430 0.022112 0
0.023624 0.022938 0
0.020091 0.023121 0
0.016940 0.022737 0
0.014217 0.021901 0
0.011912 0.020746 0
0.009985 0.019401 0
0.008381 0.017976 0
0.007040 0.016552 0
0.005911 0.015189 0
0.004948 0.013927 0
0.004114 0.012789 0
0.003381 0.011791 0
0.002724 0.010941 0
0.002124 0.010247 0
0.001564 0.009712 0
0.001030 0.009257 0
0.000532 0.008396 0
0.000139 0.005731 0
0.000000 -0.000014 0
0.000000 0.000054 0
-0.000908 0.012984 0
-0.002429 0.016817 0
-0.004182 0.018047 0
-0.006075 0.018531 0
-0.008122 0.018862 0
-0.010391 0.019216 0
-0.012996 0.019597 0
-0.016130 0.019808 0
-0.020119 0.019180 0
-0.025403 0.016237 0
-0.032213 0.009089 0
-0.039885 -0.002738 0
-0.046575 -0.016827 0
-0.051307 -0.030296 0
-0.054241 -0.041952 0
-0.055432 -0.051485 0
-0.054787 -0.058807 0
-0.052131 -0.063718 0
-0.047324 -0.065927 0
-0.040343 -0.065148 0
-0.031234 -0.061247 0
-0.020116 -0.054179 0
-0.006423 -0.042992 0
0.008690 -0.028106 0
0.022664 -0.012458 0
0.032312 0.001182 0
0.036476 0.011071 0
0.036504 0.017506 0
0.034103 0.021787 0
0.030427 0.024557 0
0.026271 0.026153 0
0.022162 0.026770 0
0.018411 0.026567 0
0.015164 0.025718 0
0.012451 0.024410 0
0.010233 0.022823 0
0.008436 0.021109 0
0.006982 0.019381 0
0.005796 0.017716 0
0.004817 0.016166 0
0.003998 0.014758 0
0.003299 0.013509 0
0.002692 0.012427 0
0.002154 0.011514 0
0.001665 0.010774 0
0.001211 0.010208 0
0.000779 0.009724 0
0.000381 0.008794 0
0.000083 0.005959 0
0.000000 -0.000014 0
0.000000 0.000056 0
-0.000855 0.014173 0
-0.002315 0.018427 0
-0.004005 0.019841 0
-0.005824 0.020466 0
-0.007777 0.020971 0
-0.009915 0.021581 0
-0.012326 0.022358 0
-0.015166 0.023215 0
-0.018720 0.023638 0
-0.023485 0.022208 0
-0.030023 0.016571 0
-0.038239 0.005136 0
-0.046588 -0.010259 0
-0.052934 -0.025679 0
-0.057348 -0.039088 0
-0.060076 -0.050367 0
-0.061093 -0.059574 0
-0.060211 -0.066565 0
-0.057207 -0.070993 0
-0.051919 -0.072453 0
-0.044322 -0.070618 0
-0.034629 -0.065315 0
-0.023199 -0.056441 0
-0.009568 -0.043572 0
0.005526 -0.026631 0
0.019719 -0.008306 0
0.029026 0.007111 0
0.032020 0.017770 0
0.031242 0.024480 0
0.028226 0.028441 0
0.024202 0.030377 0
0.020037 0.030798 0
0.016237 0.030119 0
0.013020 0.028696 0
0.010417 0.026832 0
0.008359 0.024761 0
0.006747 0.022652 0
0.005480 0.020615 0
0.004475 0.018716 0
0.003665 0.016987 0
0.003001 0.015445 0
0.002446 0.014095 0
0.001972 0.012936 0
0.001558 0.011968 0
0.001186 0.011190 0
0.000843 0.010598 0
0.000518 0.010087 0
0.000226 0.009092 0
0.000028 0.006111 0
0.000000 -0.000015 0
0.000000 0.000057 0
-0.000791 0.015297 0
-0.002174 0.019967 0
-0.003783 0.021557 0
-0.005510 0.022304 0
-0.007347 0.022953 0
-0.009327 0.023765 0
-0.011514 0.024848 0
-0.014012 0.026203 0
-0.017037 0.027500 0
-0.021035 0.027540 0
-0.026751 0.023843 0
-0.034718 0.013829 0
-0.044065 -0.002132 0
-0.052218 -0.019535 0
-0.058006 -0.034808 0
-0.062060 -0.047739 0
-0.064544 -0.058671 0
-0.065345 -0.067604 0
-0.064213 -0.074219 0
-0.060882 -0.078033 0
-0.055164 -0.078539 0
-0.047075 -0.075304 0
-0.036890 -0.068053 0
-0.025061 -0.056831 0
-0.011695 -0.041746 0
0.003023 -0.022318 0
0.016885 -0.001229 0
0.024227 0.015290 0
0.025717 0.025580 0
0.024045 0.031596 0
0.020768 0.034342 0
0.017015 0.034734 0
0.013485 0.033583 0
0.010502 0.031538 0
0.008136 0.029071 0
0.006320 0.026493 0
0.004943 0.023987 0
0.003897 0.021652 0
0.003093 0.019531 0
0.002464 0.017639 0
0.001964 0.015977 0
0.001559 0.014538 0
0.001224 0.013314 0
0.000939 0.012299 0
0.000689 0.011489 0
0.000461 0.010876 0
0.000248 0.010341 0
0.000068 0.009284 0
-0.000025 0.006185 0
0.000000 -0.000015 0
0.000000 0.000058 0
-0.000719 0.016346 0
-0.002012 0.021420 0
-0.003527 0.023177 0
-0.005146 0.024029 0
-0.006850 0.024789 0
-0.008659 0.025749 0
-0.010607 0.027044 0
-0.012756 0.028738 0
-0.015237 0.030662 0
-0.018385 0.031922 0
-0.022941 0.030254 0
-0.029911 0.022451 0
-0.039351 0.007242 0
-0.049173 -0.011737 0
-0.056448 -0.029246 0
-0.061657 -0.043828 0
-0.065360 -0.056288 0
-0.067639 -0.066896 0
-0.068324 -0.075457 0
-0.067118 -0.081504 0
-0.063715 -0.084426 0
-0.057913 -0.083589 0
-0.049701 -0.078455 0
-0.039322 -0.068768 0
-0.027365 -0.054715 0
-0.014407 -0.036887 0
-0.000254 -0.014093 0
0.012688 0.008938 0
0.017004 0.024661 0
0.017327 0.033389 0
0.015515 0.037407 0
0.012822 0.038082 0
0.010040 0.036631 0
0.007592 0.034044 0
0.005631 0.031014 0
0.004146 0.027953 0
0.003052 0.025075 0
0.002251 0.022466 0
0.001662 0.020148 0
0.001222 0.018115 0
0.000892 0.016349 0
0.000642 0.014835 0
0.000448 0.013556 0
0.000297 0.012502 0
0.000172 0.011667 0
0.000065 0.011039 0
-0.000030 0.010480 0
-0.000093 0.009365 0
-0.000078 0.006179 0
0.000000 -0.000015 0
0.000000 0.000058 0
-0.000641 0.017309 0
-0.001834 0.022775 0
-0.003243 0.024690 0
-0.004744 0.025628 0
-0.006306 0.026467 0
-0.007933 0.027523 0
-0.009642 0.028946 0
-0.011454 0.030833 0
-0.013427 0.033129 0
-0.015765 0.035245 0
-0.019069 0.035370 0
-0.024520 0.030239 0
-0.033099 0.017131 0
-0.043706 -0.002437 0
-0.052875 -0.022323 0
-0.059224 -0.038827 0
-0.063908 -0.052689 0
-0.067376 -0.064641 0
-0.069661 -0.074741 0
-0.070546 -0.082643 0
-0.069690 -0.087745 0
-0.066741 -0.089318 0
-0.061423 -0.086645 0
-0.053616 -0.079167 0
-0.043511 -0.066661 0
-0.031742 -0.049430 0
-0.019327 -0.028324 0
-0.005434 -0.001968 0
0.005096 0.020940 0
0.007981 0.033085 0
0.008196 0.038848 0
0.007238 0.040208 0
0.005776 0.038811 0
0.004246 0.035946 0
0.002904 0.032517 0
0.001854 0.029072 0
0.001090 0.025882 0
0.000556 0.023042 0
0.000190 0.020560 0
-0.000055 0.018408 0
-0.000213 0.016557 0
-0.000308 0.014982 0
-0.000356 0.013659 0
-0.000371 0.012575 0
-0.000365 0.011721 0
-0.000347 0.011079 0
-0.000318 0.010498 0
-0.000256 0.009332 0
-0.000132 0.006092 0
0.000000 -0.000015 0
0.000000 0.000057 0
-0.000559 0.018180 0
-0.001645 0.024023 0
-0.002940 0.026087 0
-0.004315 0.027092 0
-0.005728 0.027980 0
-0.007173 0.029086 0
-0.008647 0.030565 0
-0.010144 0.032524 0
-0.011667 0.034973 0
-0.013306 0.037564 0
-0.015460 0.039008 0
-0.019194 0.036482 0
-0.026060 0.026430 0
-0.036319 0.008040 0
-0.047273 -0.013729 0
-0.055079 -0.032795 0
-0.060646 -0.048137 0
-0.065011 -0.061144 0
-0.068568 -0.072288 0
-0.071309 -0.081475 0
-0.072958 -0.088232 0
-0.073113 -0.091857 0
-0.071324 -0.091580 0
-0.067160 -0.086679 0
-0.060334 -0.076590 0
-0.050898 -0.061071 0
-0.039455 -0.040402 0
-0.027150 -0.015486 0
-0.012761 0.011246 0
-0.004716 0.030289 0
-0.001275 0.038148 0
0.000234 0.040500 0
0.000630 0.039622 0
0.000409 0.036917 0
-0.000072 0.033406 0
-0.000560 0.029767 0
-0.000939 0.026373 0
-0.001187 0.023367 0
-0.001323 0.020760 0
-0.001373 0.018518 0
-0.001357 0.016601 0
-0.001293 0.014977 0
-0.001193 0.013619 0
-0.001068 0.012511 0
-0.000926 0.011644 0
-0.000777 0.010992 0
-0.000617 0.010389 0
-0.000425 0.009179 0
-0.000187 0.005922 0
0.000000 -0.000015 0
0.000000 0.000055 0
-0.000475 0.018954 0
-0.001449 0.025158 0
-0.002625 0.027361 0
-0.003869 0.028416 0
-0.005132 0.029325 0
-0.006395 0.030442 0
-0.007643 0.031918 0
-0.008851 0.033854 0
-0.009987 0.036291 0
-0.011056 0.039037 0
-0.012273 0.041258 0
-0.014421 0.040839 0
-0.019125 0.034256 0
-0.027862 0.018777 0
-0.039432 -0.003562 0
-0.049373 -0.025454 0
-0.056005 -0.042758 0
-0.061081 -0.056721 0
-0.065550 -0.068444 0
-0.069766 -0.078254 0
-0.073635 -0.085941 0
-0.076792 -0.090953 0
-0.078726 -0.092598 0
-0.078811 -0.090157 0
-0.076377 -0.082924 0
-0.070863 -0.070310 0
-0.062031 -0.052072 0
-0.050151 -0.028662 0
-0.035993 -0.001495 0
-0.021346 0.021598 0
-0.013171 0.033898 0
-0.008323 0.038303 0
-0.005499 0.038636 0
-0.004009 0.036648 0
-0.003366 0.033486 0
-0.003137 0.029939 0
-0.003058 0.026510 0
-0.002989 0.023426 0
-0.002885 0.020745 0
-0.002737 0.018443 0
-0.002548 0.016478 0
-0.002324 0.014818 0