# vtk DataFile Version 2.0
generated by CFD-lab course output (written by Tobias Neckel) 
ASCII

DATASET STRUCTURED_GRID
DIMENSIONS  51 51 1 
POINTS 2601 float

0.000000 0.000000 0
0.020000 0.000000 0
0.040000 0.000000 0
0.060000 0.000000 0
0.080000 0.000000 0
0.100000 0.000000 0
0.120000 0.000000 0
0.140000 0.000000 0
0.160000 0.000000 0
0.180000 0.000000 0
0.200000 0.000000 0
0.220000 0.000000 0
0.240000 0.000000 0
0.260000 0.000000 0
0.280000 0.000000 0
0.300000 0.000000 0
0.320000 0.000000 0
0.340000 0.000000 0
0.360000 0.000000 0
0.380000 0.000000 0
0.400000 0.000000 0
0.420000 0.000000 0
0.440000 0.000000 0
0.460000 0.000000 0
0.480000 0.000000 0
0.500000 0.000000 0
0.520000 0.000000 0
0.540000 0.000000 0
0.560000 0.000000 0
0.580000 0.000000 0
0.600000 0.000000 0
0.620000 0.000000 0
0.640000 0.000000 0
0.660000 0.000000 0
0.680000 0.000000 0
0.700000 0.000000 0
0.720000 0.000000 0
0.740000 0.000000 0
0.760000 0.000000 0
0.780000 0.000000 0
0.800000 0.000000 0
0.820000 0.000000 0
0.840000 0.000000 0
0.860000 0.000000 0
0.880000 0.000000 0
0.900000 0.000000 0
0.920000 0.000000 0
0.940000 0.000000 0
0.960000 0.000000 0
0.980000 0.000000 0
1.000000 0.000000 0
0.000000 0.020000 0
0.020000 0.020000 0
0.040000 0.020000 0
0.060000 0.020000 0
0.080000 0.020000 0
0.100000 0.020000 0
0.120000 0.020000 0
0.140000 0.020000 0
0.160000 0.020000 0
0.180000 0.020000 0
0.200000 0.020000 0
0.220000 0.020000 0
0.240000 0.020000 0
0.260000 0.020000 0
0.280000 0.020000 0
0.300000 0.020000 0
0.320000 0.020000 0
0.340000 0.020000 0
0.360000 0.020000 0
0.380000 0.020000 0
0.400000 0.020000 0
0.420000 0.020000 0
0.440000 0.020000 0
0.460000 0.020000 0
0.480000 0.020000 0
0.500000 0.020000 0
0.520000 0.020000 0
0.540000 0.020000 0
0.560000 0.020000 0
0.580000 0.020000 0
0.600000 0.020000 0
0.620000 0.020000 0
0.640000 0.020000 0
0.660000 0.020000 0
0.680000 0.020000 0
0.700000 0.020000 0
0.720000 0.020000 0
0.740000 0.020000 0
0.760000 0.020000 0
0.780000 0.020000 0
0.800000 0.020000 0
0.820000 0.020000 0
0.840000 0.020000 0
0.860000 0.020000 0
0.880000 0.020000 0
0.900000 0.020000 0
0.920000 0.020000 0
0.940000 0.020000 0
0.960000 0.020000 0
0.980000 0.020000 0
1.000000 0.020000 0
0.000000 0.040000 0
0.020000 0.040000 0
0.040000 0.040000 0
0.060000 0.040000 0
0.080000 0.040000 0
0.100000 0.040000 0
0.120000 0.040000 0
0.140000 0.040000 0
0.160000 0.040000 0
0.180000 0.040000 0
0.200000 0.040000 0
0.220000 0.040000 0
0.240000 0.040000 0
0.260000 0.040000 0
0.280000 0.040000 0
0.300000 0.040000 0
0.320000 0.040000 0
0.340000 0.040000 0
0.360000 0.040000 0
0.380000 0.040000 0
0.400000 0.040000 0
0.420000 0.040000 0
0.440000 0.040000 0
0.460000 0.040000 0
0.480000 0.040000 0
0.500000 0.040000 0
0.520000 0.040000 0
0.540000 0.040000 0
0.560000 0.040000 0
0.580000 0.040000 0
0.600000 0.040000 0
0.620000 0.040000 0
0.640000 0.040000 0
0.660000 0.040000 0
0.680000 0.040000 0
0.700000 0.040000 0
0.720000 0.040000 0
0.740000 0.040000 0
0.760000 0.040000 0
0.780000 0.040000 0
0.800000 0.040000 0
0.820000 0.040000 0
0.840000 0.040000 0
0.860000 0.040000 0
0.880000 0.040000 0
0.900000 0.040000 0
0.920000 0.040000 0
0.940000 0.040000 0
0.960000 0.040000 0
0.980000 0.040000 0
1.000000 0.040000 0
0.000000 0.060000 0
0.020000 0.060000 0
0.040000 0.060000 0
0.060000 0.060000 0
0.080000 0.060000 0
0.100000 0.060000 0
0.120000 0.060000 0
0.140000 0.060000 0
0.160000 0.060000 0
0.180000 0.060000 0
0.200000 0.060000 0
0.220000 0.060000 0
0.240000 0.060000 0
0.260000 0.060000 0
0.280000 0.060000 0
0.300000 0.060000 0
0.320000 0.060000 0
0.340000 0.060000 0
0.360000 0.060000 0
0.380000 0.060000 0
0.400000 0.060000 0
0.420000 0.060000 0
0.440000 0.060000 0
0.460000 0.060000 0
0.480000 0.060000 0
0.500000 0.060000 0
0.520000 0.060000 0
0.540000 0.060000 0
0.560000 0.060000 0
0.580000 0.060000 0
0.600000 0.060000 0
0.620000 0.060000 0
0.640000 0.060000 0
0.660000 0.060000 0
0.680000 0.060000 0
0.700000 0.060000 0
0.720000 0.060000 0
0.740000 0.060000 0
0.760000 0.060000 0
0.780000 0.060000 0
0.800000 0.060000 0
0.820000 0.060000 0
0.840000 0.060000 0
0.860000 0.060000 0
0.880000 0.060000 0
0.900000 0.060000 0
0.920000 0.060000 0
0.940000 0.060000 0
0.960000 0.060000 0
0.980000 0.060000 0
1.000000 0.060000 0
0.000000 0.080000 0
0.020000 0.080000 0
0.040000 0.080000 0
0.060000 0.080000 0
0.080000 0.080000 0
0.100000 0.080000 0
0.120000 0.080000 0
0.140000 0.080000 0
0.160000 0.080000 0
0.180000 0.080000 0
0.200000 0.080000 0
0.220000 0.080000 0
0.240000 0.080000 0
0.260000 0.080000 0
0.280000 0.080000 0
0.300000 0.080000 0
0.320000 0.080000 0
0.340000 0.080000 0
0.360000 0.080000 0
0.380000 0.080000 0
0.400000 0.080000 0
0.420000 0.080000 0
0.440000 0.080000 0
0.460000 0.080000 0
0.480000 0.080000 0
0.500000 0.080000 0
0.520000 0.080000 0
0.540000 0.080000 0
0.560000 0.080000 0
0.580000 0.080000 0
0.600000 0.080000 0
0.620000 0.080000 0
0.640000 0.080000 0
0.660000 0.080000 0
0.680000 0.080000 0
0.700000 0.080000 0
0.720000 0.080000 0
0.740000 0.080000 0
0.760000 0.080000 0
0.780000 0.080000 0
0.800000 0.080000 0
0.820000 0.080000 0
0.840000 0.080000 0
0.860000 0.080000 0
0.880000 0.080000 0
0.900000 0.080000 0
0.920000 0.080000 0
0.940000 0.080000 0
0.960000 0.080000 0
0.980000 0.080000 0
1.000000 0.080000 0
0.000000 0.100000 0
0.020000 0.100000 0
0.040000 0.100000 0
0.060000 0.100000 0
0.080000 0.100000 0
0.100000 0.100000 0
0.120000 0.100000 0
0.140000 0.100000 0
0.160000 0.100000 0
0.180000 0.100000 0
0.200000 0.100000 0
0.220000 0.100000 0
0.240000 0.100000 0
0.260000 0.100000 0
0.280000 0.100000 0
0.300000 0.100000 0
0.320000 0.100000 0
0.340000 0.100000 0
0.360000 0.100000 0
0.380000 0.100000 0
0.400000 0.100000 0
0.420000 0.100000 0
0.440000 0.100000 0
0.460000 0.100000 0
0.480000 0.100000 0
0.500000 0.100000 0
0.520000 0.100000 0
0.540000 0.100000 0
0.560000 0.100000 0
0.580000 0.100000 0
0.600000 0.100000 0
0.620000 0.100000 0
0.640000 0.100000 0
0.660000 0.100000 0
0.680000 0.100000 0
0.700000 0.100000 0
0.720000 0.100000 0
0.740000 0.100000 0
0.760000 0.100000 0
0.780000 0.100000 0
0.800000 0.100000 0
0.820000 0.100000 0
0.840000 0.100000 0
0.860000 0.100000 0
0.880000 0.100000 0
0.900000 0.100000 0
0.920000 0.100000 0
0.940000 0.100000 0
0.960000 0.100000 0
0.980000 0.100000 0
1.000000 0.100000 0
0.000000 0.120000 0
0.020000 0.120000 0
0.040000 0.120000 0
0.060000 0.120000 0
0.080000 0.120000 0
0.100000 0.120000 0
0.120000 0.120000 0
0.140000 0.120000 0
0.160000 0.120000 0
0.180000 0.120000 0
0.200000 0.120000 0
0.220000 0.120000 0
0.240000 0.120000 0
0.260000 0.120000 0
0.280000 0.120000 0
0.300000 0.120000 0
0.320000 0.120000 0
0.340000 0.120000 0
0.360000 0.120000 0
0.380000 0.120000 0
0.400000 0.120000 0
0.420000 0.120000 0
0.440000 0.120000 0
0.460000 0.120000 0
0.480000 0.120000 0
0.500000 0.120000 0
0.520000 0.120000 0
0.540000 0.120000 0
0.560000 0.120000 0
0.580000 0.120000 0
0.600000 0.120000 0
0.620000 0.120000 0
0.640000 0.120000 0
0.660000 0.120000 0
0.680000 0.120000 0
0.700000 0.120000 0
0.720000 0.120000 0
0.740000 0.120000 0
0.760000 0.120000 0
0.780000 0.120000 0
0.800000 0.120000 0
0.820000 0.120000 0
0.840000 0.120000 0
0.860000 0.120000 0
0.880000 0.120000 0
0.900000 0.120000 0
0.920000 0.120000 0
0.940000 0.120000 0
0.960000 0.120000 0
0.980000 0.120000 0
1.000000 0.120000 0
0.000000 0.140000 0
0.020000 0.140000 0
0.040000 0.140000 0
0.060000 0.140000 0
0.080000 0.140000 0
0.100000 0.140000 0
0.120000 0.140000 0
0.140000 0.140000 0
0.160000 0.140000 0
0.180000 0.140000 0
0.200000 0.140000 0
0.220000 0.140000 0
0.240000 0.140000 0
0.260000 0.140000 0
0.280000 0.140000 0
0.300000 0.140000 0
0.320000 0.140000 0
0.340000 0.140000 0
0.360000 0.140000 0
0.380000 0.140000 0
0.400000 0.140000 0
0.420000 0.140000 0
0.440000 0.140000 0
0.460000 0.140000 0
0.480000 0.140000 0
0.500000 0.140000 0
0.520000 0.140000 0
0.540000 0.140000 0
0.560000 0.140000 0
0.580000 0.140000 0
0.600000 0.140000 0
0.620000 0.140000 0
0.640000 0.140000 0
0.660000 0.140000 0
0.680000 0.140000 0
0.700000 0.140000 0
0.720000 0.140000 0
0.740000 0.140000 0
0.760000 0.140000 0
0.780000 0.140000 0
0.800000 0.140000 0
0.820000 0.140000 0
0.840000 0.140000 0
0.860000 0.140000 0
0.880000 0.140000 0
0.900000 0.140000 0
0.920000 0.140000 0
0.940000 0.140000 0
0.960000 0.140000 0
0.980000 0.140000 0
1.000000 0.140000 0
0.000000 0.160000 0
0.020000 0.160000 0
0.040000 0.160000 0
0.060000 0.160000 0
0.080000 0.160000 0
0.100000 0.160000 0
0.120000 0.160000 0
0.140000 0.160000 0
0.160000 0.160000 0
0.180000 0.160000 0
0.200000 0.160000 0
0.220000 0.160000 0
0.240000 0.160000 0
0.260000 0.160000 0
0.280000 0.160000 0
0.300000 0.160000 0
0.320000 0.160000 0
0.340000 0.160000 0
0.360000 0.160000 0
0.380000 0.160000 0
0.400000 0.160000 0
0.420000 0.160000 0
0.440000 0.160000 0
0.460000 0.160000 0
0.480000 0.160000 0
0.500000 0.160000 0
0.520000 0.160000 0
0.540000 0.160000 0
0.560000 0.160000 0
0.580000 0.160000 0
0.600000 0.160000 0
0.620000 0.160000 0
0.640000 0.160000 0
0.660000 0.160000 0
0.680000 0.160000 0
0.700000 0.160000 0
0.720000 0.160000 0
0.740000 0.160000 0
0.760000 0.160000 0
0.780000 0.160000 0
0.800000 0.160000 0
0.820000 0.160000 0
0.840000 0.160000 0
0.860000 0.160000 0
0.880000 0.160000 0
0.900000 0.160000 0
0.920000 0.160000 0
0.940000 0.160000 0
0.960000 0.160000 0
0.980000 0.160000 0
1.000000 0.160000 0
0.000000 0.180000 0
0.020000 0.180000 0
0.040000 0.180000 0
0.060000 0.180000 0
0.080000 0.180000 0
0.100000 0.180000 0
0.120000 0.180000 0
0.140000 0.180000 0
0.160000 0.180000 0
0.180000 0.180000 0
0.200000 0.180000 0
0.220000 0.180000 0
0.240000 0.180000 0
0.260000 0.180000 0
0.280000 0.180000 0
0.300000 0.180000 0
0.320000 0.180000 0
0.340000 0.180000 0
0.360000 0.180000 0
0.380000 0.180000 0
0.400000 0.180000 0
0.420000 0.180000 0
0.440000 0.180000 0
0.460000 0.180000 0
0.480000 0.180000 0
0.500000 0.180000 0
0.520000 0.180000 0
0.540000 0.180000 0
0.560000 0.180000 0
0.580000 0.180000 0
0.600000 0.180000 0
0.620000 0.180000 0
[...]
POINT_DATA 2601 

VECTORS velocity float
0.000000 0.000000 0
0.000000 0.000000 0
0.000000 0.000000 0
-0.000000 0.000000 0
-0.000000 0.000000 0
-0.000000 0.000000 0
-0.000000 0.000000 0
-0.000000 0.000000 0
-0.000001 0.000000 0
-0.000001 0.000000 0
-0.000001 0.000000 0
-0.000001 0.000000 0
-0.000001 0.000000 0
-0.000001 0.000000 0
-0.000001 0.000000 0
-0.000001 0.000000 0
-0.000001 0.000000 0
-0.000001 0.000000 0
-0.000001 0.000000 0
-0.000001 0.000000 0
-0.000001 0.000000 0
-0.000001 0.000000 0
-0.000001 0.000000 0
-0.000001 0.000000 0
-0.000000 0.000000 0
-0.000000 0.000000 0
-0.000000 0.000000 0
0.000000 0.000000 0
0.000000 0.000000 0
0.000001 0.000000 0
0.000001 0.000000 0
0.000001 0.000000 0
0.000001 0.000000 0
0.000002 0.000000 0
0.000002 0.000000 0
0.000002 0.000000 0
0.000002 0.000000 0
0.000002 0.000000 0
0.000002 0.000000 0
0.000003 0.000000 0
0.000003 0.000000 0
0.000002 0.000000 0
0.000002 0.000000 0
0.000002 0.000000 0
0.000002 0.000000 0
0.000002 0.000000 0
0.000002 0.000000 0
0.000001 0.000000 0
0.000001 0.000000 0
0.000001 0.000000 0
0.000000 0.000000 0
0.000000 -0.000000 0
-0.000100 0.000100 0
-0.000283 0.000142 0
-0.000484 0.000151 0
-0.000687 0.000150 0
-0.000888 0.000148 0
-0.001085 0.000146 0
-0.001280 0.000143 0
-0.001469 0.000140 0
-0.001654 0.000136 0
-0.001833 0.000131 0
-0.002006 0.000126 0
-0.002172 0.000121 0
-0.002330 0.000115 0
-0.002479 0.000108 0
-0.002620 0.000101 0
-0.002751 0.000094 0
-0.002871 0.000086 0
-0.002980 0.000077 0
-0.003078 0.000068 0
-0.003163 0.000058 0
-0.003236 0.000048 0
-0.003295 0.000038 0
-0.003340 0.000027 0
-0.003371 0.000016 0
-0.003387 0.000005 0
-0.003389 -0.000006 0
-0.003375 -0.000018 0
-0.003346 -0.000029 0
-0.003301 -0.000040 0
-0.003242 -0.000052 0
-0.003168 -0.000063 0
-0.003079 -0.000073 0
-0.002977 -0.000083 0
-0.002861 -0.000093 0
-0.002732 -0.000102 0
-0.002591 -0.000111 0
-0.002439 -0.000119 0
-0.002277 -0.000126 0
-0.002106 -0.000132 0
-0.001925 -0.000138 0
-0.001737 -0.000143 0
-0.001543 -0.000147 0
-0.001343 -0.000151 0
-0.001137 -0.000154 0
-0.000928 -0.000156 0
-0.000716 -0.000158 0
-0.000502 -0.000157 0
-0.000290 -0.000147 0
-0.000100 -0.000100 0
0.000000 0.000001 0
0.000000 -0.000000 0
-0.000144 0.000282 0
-0.000387 0.000383 0
-0.000651 0.000403 0
-0.000917 0.000403 0
-0.001181 0.000398 0
-0.001441 0.000391 0
-0.001696 0.000383 0
-0.001945 0.000374 0
-0.002187 0.000363 0
-0.002422 0.000351 0
-0.002649 0.000338 0
-0.002866 0.000323 0
-0.003073 0.000307 0
-0.003269 0.000290 0
-0.003453 0.000271 0
-0.003624 0.000251 0
-0.003782 0.000229 0
-0.003925 0.000207 0
-0.004053 0.000183 0
-0.004165 0.000157 0
-0.004261 0.000131 0
-0.004338 0.000104 0
-0.004398 0.000075 0
-0.004440 0.000046 0
-0.004462 0.000017 0
-0.004464 -0.000013 0
-0.004447 -0.000044 0
-0.004410 -0.000074 0
-0.004353 -0.000104 0
-0.004277 -0.000134 0
-0.004181 -0.000163 0
-0.004067 -0.000192 0
-0.003934 -0.000219 0
-0.003783 -0.000245 0
-0.003615 -0.000270 0
-0.003432 -0.000293 0
-0.003234 -0.000315 0
-0.003022 -0.000334 0
-0.002797 -0.000352 0
-0.002561 -0.000368 0
-0.002314 -0.000383 0
-0.002058 -0.000395 0
-0.001794 -0.000406 0
-0.001524 -0.000415 0
-0.001247 -0.000422 0
-0.000966 -0.000427 0
-0.000683 -0.000426 0
-0.000402 -0.000402 0
-0.000147 -0.000290 0
0.000000 0.000001 0
0.000000 0.000000 0
-0.000154 0.000486 0
-0.000413 0.000649 0
-0.000693 0.000681 0
-0.000975 0.000680 0
-0.001253 0.000672 0
-0.001528 0.000660 0
-0.001798 0.000647 0
-0.002061 0.000631 0
-0.002318 0.000613 0
-0.002566 0.000592 0
-0.002805 0.000570 0
-0.003035 0.000545 0
-0.003254 0.000517 0
-0.003461 0.000488 0
-0.003656 0.000456 0
-0.003837 0.000422 0
-0.004004 0.000386 0
-0.004155 0.000348 0
-0.004291 0.000308 0
-0.004409 0.000266 0
-0.004510 0.000221 0
-0.004593 0.000175 0
-0.004656 0.000128 0
-0.004700 0.000079 0
-0.004724 0.000030 0
-0.004727 -0.000021 0
-0.004709 -0.000072 0
-0.004670 -0.000123 0
-0.004611 -0.000174 0
-0.004530 -0.000224 0
-0.004429 -0.000273 0
-0.004308 -0.000321 0
-0.004167 -0.000367 0
-0.004008 -0.000411 0
-0.003831 -0.000453 0
-0.003637 -0.000492 0
-0.003427 -0.000529 0
-0.003202 -0.000563 0
-0.002964 -0.000593 0
-0.002714 -0.000621 0
-0.002453 -0.000645 0
-0.002182 -0.000667 0
-0.001903 -0.000685 0
-0.001616 -0.000701 0
-0.001324 -0.000713 0
-0.001027 -0.000722 0
-0.000727 -0.000721 0
-0.000430 -0.000683 0
-0.000158 -0.000502 0
0.000000 0.000001 0
0.000000 0.000000 0
-0.000157 0.000694 0
-0.000420 0.000922 0
-0.000705 0.000965 0
-0.000992 0.000963 0
-0.001275 0.000951 0
-0.001555 0.000935 0
-0.001829 0.000916 0
-0.002097 0.000893 0
-0.002358 0.000868 0
-0.002610 0.000839 0
-0.002854 0.000807 0
-0.003088 0.000771 0
-0.003311 0.000733 0
-0.003523 0.000691 0
-0.003721 0.000646 0
-0.003906 0.000598 0
-0.004077 0.000547 0
-0.004232 0.000493 0
-0.004371 0.000436 0
-0.004493 0.000377 0
-0.004597 0.000314 0
-0.004682 0.000250 0
-0.004748 0.000183 0
-0.004793 0.000114 0
-0.004818 0.000043 0
-0.004823 -0.000028 0
-0.004805 -0.000100 0
-0.004767 -0.000173 0
-0.004707 -0.000245 0
-0.004625 -0.000316 0
-0.004522 -0.000386 0
-0.004399 -0.000454 0
-0.004255 -0.000519 0
-0.004093 -0.000582 0
-0.003912 -0.000641 0
-0.003714 -0.000697 0
-0.003499 -0.000749 0
-0.003269 -0.000797 0
-0.003026 -0.000841 0
-0.002770 -0.000880 0
-0.002503 -0.000915 0
-0.002227 -0.000945 0
-0.001941 -0.000972 0
-0.001649 -0.000994 0
-0.001351 -0.001011 0
-0.001048 -0.001024 0
-0.000742 -0.001023 0
-0.000438 -0.000971 0
-0.000161 -0.000720 0
0.000000 0.000002 0
0.000000 0.000000 0
-0.000159 0.000905 0
-0.000425 0.001197 0
-0.000713 0.001253 0
-0.001003 0.001250 0
-0.001291 0.001234 0
-0.001574 0.001214 0
-0.001851 0.001189 0
-0.002123 0.001159 0
-0.002387 0.001126 0
-0.002644 0.001089 0
-0.002891 0.001047 0
-0.003129 0.001001 0
-0.003355 0.000952 0
-0.003570 0.000898 0
-0.003773 0.000840 0
-0.003962 0.000778 0
-0.004136 0.000712 0
-0.004295 0.000642 0
-0.004437 0.000568 0
-0.004563 0.000491 0
-0.004670 0.000410 0
-0.004758 0.000326 0
-0.004827 0.000239 0
-0.004876 0.000150 0
-0.004903 0.000059 0
-0.004909 -0.000034 0
-0.004893 -0.000128 0
-0.004855 -0.000222 0
-0.004795 -0.000316 0
-0.004713 -0.000409 0
-0.004610 -0.000500 0
-0.004484 -0.000588 0
-0.004339 -0.000674 0
-0.004173 -0.000755 0
-0.003988 -0.000833 0
-0.003786 -0.000906 0
-0.003567 -0.000973 0
-0.003333 -0.001036 0
-0.003084 -0.001093 0
-0.002823 -0.001144 0
-0.002550 -0.001189 0
-0.002268 -0.001229 0
-0.001977 -0.001263 0
-0.001679 -0.001292 0
-0.001375 -0.001315 0
-0.001066 -0.001331 0
-0.000754 -0.001331 0
-0.000445 -0.001264 0
-0.000163 -0.000941 0
0.000000 0.000002 0
0.000000 0.000000 0
-0.000160 0.001118 0
-0.000430 0.001476 0
-0.000723 0.001544 0
-0.001017 0.001540 0
-0.001308 0.001521 0
-0.001595 0.001496 0
-0.001877 0.001465 0
-0.002153 0.001429 0
-0.002421 0.001388 0
-0.002682 0.001342 0
-0.002933 0.001291 0
-0.003175 0.001235 0
-0.003406 0.001174 0
-0.003626 0.001108 0
-0.003833 0.001037 0
-0.004026 0.000961 0
-0.004205 0.000880 0
-0.004369 0.000795 0
-0.004516 0.000704 0
-0.004646 0.000609 0
-0.004757 0.000510 0
-0.004850 0.000406 0
-0.004923 0.000299 0
-0.004974 0.000189 0
-0.005005 0.000077 0
-0.005014 -0.000038 0
-0.005000 -0.000154 0
-0.004963 -0.000271 0
-0.004903 -0.000387 0
-0.004821 -0.000502 0
-0.004716 -0.000615 0
-0.004589 -0.000725 0
-0.004440 -0.000831 0
-0.004271 -0.000932 0
-0.004082 -0.001028 0
-0.003875 -0.001119 0
-0.003650 -0.001203 0
-0.003410 -0.001280 0
-0.003155 -0.001350 0
-0.002887 -0.001414 0
-0.002607 -0.001470 0
-0.002318 -0.001519 0
-0.002020 -0.001561 0
-0.001715 -0.001596 0
-0.001404 -0.001624 0
-0.001088 -0.001644 0
-0.000770 -0.001644 0
-0.000454 -0.001563 0
-0.000166 -0.001165 0
0.000000 0.000003 0
0.000000 0.000000 0
-0.000163 0.001335 0
-0.000437 0.001759 0
-0.000734 0.001839 0
-0.001033 0.001835 0
-0.001329 0.001812 0
-0.001621 0.001782 0
-0.001907 0.001746 0
-0.002188 0.001703 0
-0.002461 0.001655 0
-0.002727 0.001601 0
-0.002984 0.001540 0
-0.003231 0.001474 0
-0.003467 0.001402 0
-0.003692 0.001324 0
-0.003904 0.001240 0
-0.004103 0.001150 0
-0.004288 0.001054 0
-0.004457 0.000952 0
-0.004609 0.000845 0
-0.004745 0.000732 0
-0.004862 0.000614 0
-0.004960 0.000491 0
-0.005037 0.000364 0
-0.005094 0.000232 0
-0.005128 0.000097 0
-0.005140 -0.000040 0
-0.005128 -0.000179 0
-0.005093 -0.000319 0
-0.005034 -0.000458 0
-0.004952 -0.000596 0
-0.004845 -0.000732 0
-0.004716 -0.000864 0
-0.004564 -0.000992 0
-0.004390 -0.001114 0
-0.004196 -0.001229 0
-0.003983 -0.001338 0
-0.003751 -0.001439 0
-0.003503 -0.001531 0
-0.003241 -0.001615 0
-0.002965 -0.001691 0
-0.002677 -0.001758 0
-0.002379 -0.001816 0
-0.002072 -0.001866 0
-0.001758 -0.001908 0
-0.001439 -0.001942 0
-0.001115 -0.001965 0
-0.000788 -0.001965 0
-0.000464 -0.001868 0
-0.000169 -0.001395 0
0.000000 0.000003 0
0.000000 0.000001 0
-0.000165 0.001554 0
-0.000444 0.002047 0
-0.000747 0.002140 0
-0.001051 0.002135 0
-0.001353 0.002109 0
-0.001650 0.002074 0
-0.001943 0.002032 0
-0.002229 0.001983 0
-0.002508 0.001927 0
-0.002780 0.001864 0
-0.003042 0.001795 0
-0.003295 0.001718 0
-0.003538 0.001635 0
-0.003769 0.001545 0
-0.003987 0.001448 0
-0.004193 0.001344 0
-0.004384 0.001234 0
-0.004560 0.001116 0
-0.004719 0.000992 0
-0.004861 0.000861 0
-0.004984 0.000724 0
-0.005088 0.000581 0
-0.005172 0.000433 0
-0.005234 0.000280 0
-0.005273 0.000122 0
-0.005289 -0.000038 0
-0.005280 -0.000201 0
-0.005248 -0.000365 0
-0.005190 -0.000529 0
-0.005107 -0.000691 0
-0.004999 -0.000851 0
-0.004867 -0.001006 0
-0.004711 -0.001157 0
-0.004532 -0.001300 0
-0.004332 -0.001436 0
-0.004111 -0.001564 0
-0.003872 -0.001682 0
-0.003615 -0.001791 0
-0.003343 -0.001889 0
-0.003057 -0.001978 0
-0.002759 -0.002056 0
-0.002451 -0.002123 0
-0.002134 -0.002181 0
-0.001810 -0.002230 0
-0.001480 -0.002268 0
-0.001146 -0.002295 0
-0.000809 -0.002294 0
-0.000477 -0.002181 0
-0.000173 -0.001630 0
0.000000 0.000004 0
0.000000 0.000001 0
-0.000168 0.001778 0
-0.000453 0.002341 0
-0.000762 0.002446 0
-0.001072 0.002441 0
-0.001380 0.002411 0
-0.001684 0.002372 0
-0.001983 0.002324 0
-0.002276 0.002269 0
-0.002561 0.002205 0
-0.002839 0.002134 0
-0.003109 0.002056 0
-0.003368 0.001969 0
-0.003618 0.001875 0
-0.003856 0.001773 0
-0.004082 0.001664 0
-0.004295 0.001546 0
-0.004493 0.001421 0
-0.004677 0.001287 0
-0.004844 0.001146 0
-0.004994 0.000998 0
-0.005125 0.000841 0
-0.005236 0.000678 0
-0.005327 0.000509 0
-0.005395 0.000333 0
-0.005440 0.000152 0
-0.005461 -0.000033 0
-0.005457 -0.000220 0
-0.005427 -0.000410 0
-0.005371 -0.000599 0
-0.005288 -0.000787 0
-0.005179 -0.000972 0
-0.005044 -0.001152 0
-0.004883 -0.001326 0
-0.004698 -0.001493 0
-0.004491 -0.001651 0
-0.004261 -0.001798 0
-0.004012 -0.001935 0
-0.003745 -0.002060 0
-0.003461 -0.002174 0
-0.003164 -0.002275 0
-0.002854 -0.002364 0
-0.002534 -0.002442 0
-0.002205 -0.002507 0
-0.001869 -0.002562 0
-0.001528 -0.002606 0
-0.001182 -0.002636 0
-0.000834 -0.002634 0
-0.000490 -0.002504 0
-0.000178 -0.001871 0
0.000000 0.000004 0
0.000000 0.000001 0
-0.000171 0.002006 0
-0.000462 0.002641 0
-0.000778 0.002759 0
-0.001096 0.002753 0
-0.001411 0.002720 0
-0.001722 0.002676 0
-0.002028 0.002623 0
-0.002328 0.002561 0
-0.002621 0.002491 0
-0.002906 0.002412 0
-0.003183 0.002324 0
-0.003450 0.002227 0
-0.003708 0.002123 0
-0.003954 0.002009 0
-0.004188 0.001887 0
-0.004409 0.001756 0
-0.004616 0.001616 0
-0.004809 0.001467 0
-0.004985 0.001309 0
-0.005144 0.001142 0
-0.005284 0.000967 0
-0.005404 0.000783 0
-0.005503 0.000592 0
-0.005579 0.000393 0
-0.005631 0.000188 0
-0.005658 -0.000022 0
-0.005659 -0.000236 0
-0.005633 -0.000452 0
-0.005579 -0.000668 0
-0.005496 -0.000883 0
-0.005386 -0.001095 0
-0.005247 -0.001302 0
-0.005082 -0.001502 0
-0.004890 -0.001693 0
-0.004674 -0.001873 0
-0.004434 -0.002042 0
-0.004174 -0.002199 0
-0.003894 -0.002341 0
-0.003598 -0.002470 0
-0.003287 -0.002585 0
-0.002963 -0.002686 0
-0.002629 -0.002773 0
-0.002286 -0.002846 0
-0.001937 -0.002907 0
-0.001581 -0.002956 0
-0.001223 -0.002988 0
-0.000862 -0.002985 0
-0.000506 -0.002837 0
-0.000183 -0.002120 0
0.000000 0.000005 0
0.000000 0.000001 0
-0.000175 0.002240 0
-0.000473 0.002948 0
-0.000796 0.003080 0
-0.001122 0.003073 0
-0.001445 0.003037 0
-0.001764 0.002988 0
-0.002078 0.002930 0
-0.002385 0.002861 0
-0.002686 0.002784 0
-0.002980 0.002696 0
-0.003265 0.002600 0
-0.003541 0.002494 0
-0.003806 0.002378 0
-0.004061 0.002253 0
-0.004305 0.002119 0
-0.004535 0.001974 0
-0.004752 0.001820 0
-0.004955 0.001655 0
-0.005141 0.001481 0
-0.005310 0.001296 0
-0.005460 0.001101 0
-0.005591 0.000897 0
-0.005699 0.000683 0
-0.005785 0.000461 0
-0.005846 0.000231 0
-0.005881 -0.000005 0
-0.005888 -0.000246 0
-0.005866 -0.000490 0
-0.005815 -0.000736 0
-0.005734 -0.000980 0
-0.005622 -0.001221 0
-0.005480 -0.001456 0
-0.005309 -0.001684 0
-0.005110 -0.001901 0
-0.004883 -0.002106 0
-0.004633 -0.002298 0
-0.004359 -0.002475 0
-0.004065 -0.002636 0
-0.003754 -0.002781 0
-0.003427 -0.002910 0
-0.003087 -0.003022 0
-0.002737 -0.003119 0
-0.002378 -0.003200 0
-0.002012 -0.003267 0
-0.001642 -0.003320 0
-0.001268 -0.003355 0
-0.000893 -0.003350 0
-0.000523 -0.003183 0
-0.000188 -0.002378 0
0.000000 0.000006 0
0.000000 0.000001 0
-0.000179 0.002478 0
-0.000484 0.003262 0
-0.000816 0.003409 0
-0.001151 0.003402 0
-0.001482 0.003362 0
-0.001810 0.003308 0
-0.002132 0.003244 0
-0.002448 0.003170 0
-0.002758 0.003085 0
-0.003060 0.002990 0
-0.003354 0.002884 0
-0.003639 0.002769 0
-0.003914 0.002643 0
-0.004179 0.002507 0
-0.004432 0.002360 0
-0.004673 0.002203 0
-0.004901 0.002034 0
-0.005114 0.001855 0
-0.005312 0.001664 0
-0.005493 0.001461 0
-0.005655 0.001247 0
-0.005797 0.001022 0
-0.005917 0.000786 0
-0.006014 0.000539 0
-0.006085 0.000283 0
-0.006129 0.000020 0
-0.006144 -0.000250 0
-0.006129 -0.000525 0
-0.006082 -0.000801 0
-0.006002 -0.001077 0
-0.005890 -0.001349 0
-0.005745 -0.001615 0
-0.005567 -0.001873 0
-0.005359 -0.002119 0
-0.005122 -0.002351 0
-0.004858 -0.002567 0
-0.004569 -0.002766 0
-0.004259 -0.002947 0
-0.003929 -0.003109 0
-0.003584 -0.003252 0
-0.003226 -0.003376 0
-0.002857 -0.003482 0
-0.002480 -0.003571 0
-0.002096 -0.003643 0
-0.001709 -0.003700 0
-0.001318 -0.003737 0
-0.000927 -0.003730 0
-0.000542 -0.003542 0
-0.000194 -0.002644 0
0.000000 0.000007 0
0.000000 0.000001 0
-0.000183 0.002723 0
-0.000496 0.003585 0
-0.000838 0.003746 0
-0.001182 0.003739 0
-0.001522 0.003696 0
-0.001859 0.003638 0
-0.002190 0.003568 0
-0.002516 0.003487 0
-0.002835 0.003395 0
-0.003146 0.003292 0
-0.003450 0.003178 0
-0.003744 0.003054 0
-0.004030 0.002918 0
-0.004305 0.002771 0
-0.004569 0.002613 0
-0.004821 0.002443 0
-0.005061 0.002261 0
-0.005287 0.002066 0
-0.005497 0.001859 0
-0.005691 0.001639 0
-0.005867 0.001405 0
-0.006023 0.001159 0
-0.006156 0.000900 0
-0.006266 0.000629 0
-0.006350 0.000346 0
-0.006405 0.000054 0
-0.006430 -0.000247 0
-0.006423 -0.000553 0
-0.006381 -0.000862 0
-0.006305 -0.001172 0
-0.006192 -0.001479 0
-0.006044 -0.001779 0
-0.005860 -0.002069 0
-0.005642 -0.002347 0
-0.005392 -0.002608 0
-0.005112 -0.002851 0
-0.004806 -0.003074 0
-0.004476 -0.003276 0
-0.004127 -0.003456 0
-0.003760 -0.003613 0
-0.003381 -0.003749 0
-0.002990 -0.003865 0
-0.002592 -0.003961 0
-0.002189 -0.004038 0
-0.001782 -0.004098 0
-0.001372 -0.004137 0
-0.000963 -0.004126 0
-0.000562 -0.003915 0
-0.000200 -0.002920 0
0.000000 0.000008 0
0.000000 0.000001 0
-0.000187 0.002974 0
-0.000510 0.003917 0
-0.000861 0.004094 0
-0.001215 0.004086 0
-0.001565 0.004039 0
-0.001912 0.003976 0
-0.002253 0.003901 0
-0.002588 0.003814 0
-0.002917 0.003715 0
-0.003238 0.003604 0
-0.003552 0.003482 0
-0.003857 0.003349 0
-0.004153 0.003203 0
-0.004440 0.003046 0
-0.004716 0.002877 0
-0.004980 0.002695 0
-0.005233 0.002499 0
-0.005472 0.002291 0
-0.005697 0.002068 0
-0.005905 0.001830 0
-0.006096 0.001578 0
-0.006267 0.001311 0
-0.006417 0.001029 0
-0.006542 0.000732 0
-0.006641 0.000422 0
-0.006710 0.000100 0
-0.006747 -0.000233 0
-0.006750 -0.000574 0
-0.006716 -0.000919 0
-0.006644 -0.001266 0
-0.006532 -0.001610 0
-0.006381 -0.001948 0
-0.006190 -0.002275 0
-0.005961 -0.002587 0
-0.005697 -0.002881 0
-0.005399 -0.003153 0
-0.005073 -0.003402 0
-0.004721 -0.003626 0
-0.004347 -0.003825 0
-0.003957 -0.003998 0
-0.003552 -0.004146 0
-0.003138 -0.004270 0
-0.002716 -0.004372 0
-0.002289 -0.004454 0
-0.001861 -0.004516 0
-0.001431 -0.004555 0
-0.001002 -0.004540 0
-0.000583 -0.004305 0
-0.000206 -0.003206 0
0.000000 0.000010 0
0.000000 0.000001 0
-0.000192 0.003232 0
-0.000524 0.004259 0
-0.000886 0.004451 0
-0.001250 0.004443 0
-0.001611 0.004392 0
-0.001968 0.004325 0
-0.002319 0.004244 0
-0.002665 0.004151 0
-0.003004 0.004045 0
-0.003336 0.003927 0
-0.003660 0.003797 0
-0.003977 0.003655 0
-0.004284 0.003500 0
-0.004582 0.003333 0
-0.004871 0.003153 0
-0.005148 0.002960 0
-0.005415 0.002752 0
-0.005669 0.002530 0
-0.005909 0.002292 0
-0.006134 0.002038 0
-0.006342 0.001767 0
-0.006531 0.001480 0
-0.006698 0.001174 0
-0.006842 0.000852 0
-0.006958 0.000514 0
-0.007044 0.000160 0
-0.007096 -0.000207 0
-0.007112 -0.000584 0
-0.007088 -0.000969 0
-0.007023 -0.001356 0
-0.006913 -0.001742 0
-0.006760 -0.002122 0
-0.006562 -0.002489 0
-0.006321 -0.002840 0
-0.006041 -0.003170 0
-0.005723 -0.003475 0
-0.005373 -0.003753 0
-0.004995 -0.004002 0
-0.004594 -0.004220 0
-0.004174 -0.004409 0
-0.003741 -0.004569 0
-0.003299 -0.004701 0
-0.002850 -0.004809 0
-0.002398 -0.004893 0
-0.001945 -0.004957 0
-0.001493 -0.004995 0
-0.001043 -0.004973 0
-0.000605 -0.004711 0
-0.000212 -0.003503 0
0.000000 0.000011 0
0.000000 0.000001 0
-0.000197 0.003498 0
-0.000539 0.004610 0
-0.000912 0.004819 0
-0.001287 0.004811 0
-0.001660 0.004757 0
-0.002028 0.004684 0
-0.002390 0.004598 0
-0.002746 0.004498 0
-0.003096 0.004386 0
-0.003439 0.004260 0
-0.003775 0.004123 0
-0.004102 0.003972 0
-0.004421 0.003809 0
-0.004732 0.003633 0
-0.005033 0.003443 0
-0.005325 0.003239 0
-0.005606 0.003020 0
-0.005876 0.002785 0
-0.006133 0.002533 0
-0.006376 0.002263 0
-0.006603 0.001975 0
-0.006812 0.001667 0
-0.007000 0.001339 0
-0.007165 0.000992 0
-0.007302 0.000624 0
-0.007408 0.000238 0
-0.007479 -0.000165 0
-0.007512 -0.000582 0
-0.007501 -0.001009 0
-0.007445 -0.001441 0
-0.007340 -0.001874 0
-0.007186 -0.002300 0
-0.006981 -0.002713 0
-0.006728 -0.003108 0
-0.006428 -0.003479 0
-0.006088 -0.003821 0
-0.005710 -0.004131 0
-0.005301 -0.004406 0
-0.004868 -0.004645 0
-0.004415 -0.004850 0
-0.003949 -0.005021 0
-0.003475 -0.005162 0
-0.002995 -0.005273 0
-0.002515 -0.005359 0
-0.002035 -0.005422 0
-0.001558 -0.005457 0
-0.001085 -0.005428 0
-0.000627 -0.005135 0
-0.000218 -0.003810 0
0.000000 0.000013 0
0.000000 0.000002 0
-0.000202 0.003771 0
-0.000555 0.004973 0
-0.000940 0.005199 0
-0.001327 0.005191 0
-0.001711 0.005132 0
-0.002091 0.005055 0
-0.002464 0.004963 0
-0.002832 0.004857 0
-0.003193 0.004737 0
-0.003547 0.004605 0
-0.003894 0.004460 0
-0.004233 0.004301 0
-0.004564 0.004130 0
-0.004888 0.003945 0
-0.005203 0.003746 0
-0.005509 0.003532 0
-0.005806 0.003303 0
-0.006093 0.003056 0
-0.006368 0.002792 0
-0.006631 0.002508 0
-0.006879 0.002203 0
-0.007110 0.001876 0
-0.007322 0.001527 0
-0.007511 0.001154 0
-0.007673 0.000757 0
-0.007803 0.000337 0
-0.007898 -0.000103 0
-0.007951 -0.000562 0
-0.007959 -0.001036 0
-0.007915 -0.001518 0
-0.007818 -0.002002 0
-0.007664 -0.002481 0
-0.007453 -0.002948 0
-0.007186 -0.003393 0
-0.006867 -0.003811 0
-0.006499 -0.004194 0
-0.006089 -0.004540 0
-0.005645 -0.004844 0
-0.005173 -0.005106 0
-0.004682 -0.005327 0
-0.004177 -0.005509 0
-0.003665 -0.005655 0
-0.003151 -0.005769 0
-0.002638 -0.005854 0
-0.002128 -0.005913 0
-0.001624 -0.005944 0
-0.001128 -0.005904 0
-0.000648 -0.005579 0
-0.000222 -0.004129 0
0.000000 0.000015 0
0.000000 0.000002 0
-0.000208 0.004052 0
-0.000572 0.005348 0
-0.000969 0.005591 0
-0.001369 0.005582 0
-0.001765 0.005520 0
-0.002157 0.005437 0
-0.002542 0.005339 0
-0.002921 0.005227 0
-0.003294 0.005101 0
-0.003659 0.004961 0
-0.004018 0.004808 0
-0.004369 0.004642 0
-0.004713 0.004463 0
-0.005049 0.004271 0
-0.005378 0.004064 0