# vtk DataFile Version 2.0
generated by CFD-lab course output (written by Tobias Neckel) 
ASCII

DATASET STRUCTURED_GRID
DIMENSIONS  51 51 1 
POINTS 2601 float

0.000000 0.000000 0
0.020000 0.000000 0
0.040000 0.000000 0
0.060000 0.000000 0
0.080000 0.000000 0
0.100000 0.000000 0
0.120000 0.000000 0
0.140000 0.000000 0
0.160000 0.000000 0
0.180000 0.000000 0
0.200000 0.000000 0
0.220000 0.000000 0
0.240000 0.000000 0
0.260000 0.000000 0
0.280000 0.000000 0
0.300000 0.000000 0
0.320000 0.000000 0
0.340000 0.000000 0
0.360000 0.000000 0
0.380000 0.000000 0
0.400000 0.000000 0
0.420000 0.000000 0
0.440000 0.000000 0
0.460000 0.000000 0
0.480000 0.000000 0
0.500000 0.000000 0
0.520000 0.000000 0
0.540000 0.000000 0
0.560000 0.000000 0
0.580000 0.000000 0
0.600000 0.000000 0
0.620000 0.000000 0
0.640000 0.000000 0
0.660000 0.000000 0
0.680000 0.000000 0
0.700000 0.000000 0
0.720000 0.000000 0
0.740000 0.000000 0
0.760000 0.000000 0
0.780000 0.000000 0
0.800000 0.000000 0
0.820000 0.000000 0
0.840000 0.000000 0
0.860000 0.000000 0
0.880000 0.000000 0
0.900000 0.000000 0
0.920000 0.000000 0
0.940000 0.000000 0
0.960000 0.000000 0
0.980000 0.000000 0
1.000000 0.000000 0
0.000000 0.020000 0
0.020000 0.020000 0
0.040000 0.020000 0
0.060000 0.020000 0
0.080000 0.020000 0
0.100000 0.020000 0
0.120000 0.020000 0
0.140000 0.020000 0
0.160000 0.020000 0
0.180000 0.020000 0
0.200000 0.020000 0
0.220000 0.020000 0
0.240000 0.020000 0
0.260000 0.020000 0
0.280000 0.020000 0
0.300000 0.020000 0
0.320000 0.020000 0
0.340000 0.020000 0
0.360000 0.020000 0
0.380000 0.020000 0
0.400000 0.020000 0
0.420000 0.020000 0
0.440000 0.020000 0
0.460000 0.020000 0
0.480000 0.020000 0
0.500000 0.020000 0
0.520000 0.020000 0
0.540000 0.020000 0
0.560000 0.020000 0
0.580000 0.020000 0
0.600000 0.020000 0
0.620000 0.020000 0
0.640000 0.020000 0
0.660000 0.020000 0
0.680000 0.020000 0
0.700000 0.020000 0
0.720000 0.020000 0
0.740000 0.020000 0
0.760000 0.020000 0
0.780000 0.020000 0
0.800000 0.020000 0
0.820000 0.020000 0
0.840000 0.020000 0
0.860000 0.020000 0
0.880000 0.020000 0
0.900000 0.020000 0
0.920000 0.020000 0
0.940000 0.020000 0
0.960000 0.020000 0
0.980000 0.020000 0
1.000000 0.020000 0
0.000000 0.040000 0
0.020000 0.040000 0
0.040000 0.040000 0
0.060000 0.040000 0
0.080000 0.040000 0
0.100000 0.040000 0
0.120000 0.040000 0
0.140000 0.040000 0
0.160000 0.040000 0
0.180000 0.040000 0
0.200000 0.040000 0
0.220000 0.040000 0
0.240000 0.040000 0
0.260000 0.040000 0
0.280000 0.040000 0
0.300000 0.040000 0
0.320000 0.040000 0
0.340000 0.040000 0
0.360000 0.040000 0
0.380000 0.040000 0
0.400000 0.040000 0
0.420000 0.040000 0
0.440000 0.040000 0
0.460000 0.040000 0
0.480000 0.040000 0
0.500000 0.040000 0
0.520000 0.040000 0
0.540000 0.040000 0
0.560000 0.040000 0
0.580000 0.040000 0
0.600000 0.040000 0
0.620000 0.040000 0
0.640000 0.040000 0
0.660000 0.040000 0
0.680000 0.040000 0
0.700000 0.040000 0
0.720000 0.040000 0
0.740000 0.040000 0
0.760000 0.040000 0
0.780000 0.040000 0
0.800000 0.040000 0
0.820000 0.040000 0
0.840000 0.040000 0
0.860000 0.040000 0
0.880000 0.040000 0
0.900000 0.040000 0
0.920000 0.040000 0
0.940000 0.040000 0
0.960000 0.040000 0
0.980000 0.040000 0
1.000000 0.040000 0
0.000000 0.060000 0
0.020000 0.060000 0
0.040000 0.060000 0
0.060000 0.060000 0
0.080000 0.060000 0
0.100000 0.060000 0
0.120000 0.060000 0
0.140000 0.060000 0
0.160000 0.060000 0
0.180000 0.060000 0
0.200000 0.060000 0
0.220000 0.060000 0
0.240000 0.060000 0
0.260000 0.060000 0
0.280000 0.060000 0
0.300000 0.060000 0
0.320000 0.060000 0
0.340000 0.060000 0
0.360000 0.060000 0
0.380000 0.060000 0
0.400000 0.060000 0
0.420000 0.060000 0
0.440000 0.060000 0
0.460000 0.060000 0
0.480000 0.060000 0
0.500000 0.060000 0
0.520000 0.060000 0
0.540000 0.060000 0
0.560000 0.060000 0
0.580000 0.060000 0
0.600000 0.060000 0
0.620000 0.060000 0
0.640000 0.060000 0
0.660000 0.060000 0
0.680000 0.060000 0
0.700000 0.060000 0
0.720000 0.060000 0
0.740000 0.060000 0
0.760000 0.060000 0
0.780000 0.060000 0
0.800000 0.060000 0
0.820000 0.060000 0
0.840000 0.060000 0
0.860000 0.060000 0
0.880000 0.060000 0
0.900000 0.060000 0
0.920000 0.060000 0
0.940000 0.060000 0
0.960000 0.060000 0
0.980000 0.060000 0
1.000000 0.060000 0
0.000000 0.080000 0
0.020000 0.080000 0
0.040000 0.080000 0
0.060000 0.080000 0
0.080000 0.080000 0
0.100000 0.080000 0
0.120000 0.080000 0
0.140000 0.080000 0
0.160000 0.080000 0
0.180000 0.080000 0
0.200000 0.080000 0
0.220000 0.080000 0
0.240000 0.080000 0
0.260000 0.080000 0
0.280000 0.080000 0
0.300000 0.080000 0
0.320000 0.080000 0
0.340000 0.080000 0
0.360000 0.080000 0
0.380000 0.080000 0
0.400000 0.080000 0
0.420000 0.080000 0
0.440000 0.080000 0
0.460000 0.080000 0
0.480000 0.080000 0
0.500000 0.080000 0
0.520000 0.080000 0
0.540000 0.080000 0
0.560000 0.080000 0
0.580000 0.080000 0
0.600000 0.080000 0
0.620000 0.080000 0
0.640000 0.080000 0
0.660000 0.080000 0
0.680000 0.080000 0
0.700000 0.080000 0
0.720000 0.080000 0
0.740000 0.080000 0
0.760000 0.080000 0
0.780000 0.080000 0
0.800000 0.080000 0
0.820000 0.080000 0
0.840000 0.080000 0
0.860000 0.080000 0
0.880000 0.080000 0
0.900000 0.080000 0
0.920000 0.080000 0
0.940000 0.080000 0
0.960000 0.080000 0
0.980000 0.080000 0
1.000000 0.080000 0
0.000000 0.100000 0
0.020000 0.100000 0
0.040000 0.100000 0
0.060000 0.100000 0
0.080000 0.100000 0
0.100000 0.100000 0
0.120000 0.100000 0
0.140000 0.100000 0
0.160000 0.100000 0
0.180000 0.100000 0
0.200000 0.100000 0
0.220000 0.100000 0
0.240000 0.100000 0
0.260000 0.100000 0
0.280000 0.100000 0
0.300000 0.100000 0
0.320000 0.100000 0
0.340000 0.100000 0
0.360000 0.100000 0
0.380000 0.100000 0
0.400000 0.100000 0
0.420000 0.100000 0
0.440000 0.100000 0
0.460000 0.100000 0
0.480000 0.100000 0
0.500000 0.100000 0
0.520000 0.100000 0
0.540000 0.100000 0
0.560000 0.100000 0
0.580000 0.100000 0
0.600000 0.100000 0
0.620000 0.100000 0
0.640000 0.100000 0
0.660000 0.100000 0
0.680000 0.100000 0
0.700000 0.100000 0
0.720000 0.100000 0
0.740000 0.100000 0
0.760000 0.100000 0
0.780000 0.100000 0
0.800000 0.100000 0
0.820000 0.100000 0
0.840000 0.100000 0
0.860000 0.100000 0
0.880000 0.100000 0
0.900000 0.100000 0
0.920000 0.100000 0
0.940000 0.100000 0
0.960000 0.100000 0
0.980000 0.100000 0
1.000000 0.100000 0
0.000000 0.120000 0
0.020000 0.120000 0
0.040000 0.120000 0
0.060000 0.120000 0
0.080000 0.120000 0
0.100000 0.120000 0
0.120000 0.120000 0
0.140000 0.120000 0
0.160000 0.120000 0
0.180000 0.120000 0
0.200000 0.120000 0
0.220000 0.120000 0
0.240000 0.120000 0
0.260000 0.120000 0
0.280000 0.120000 0
0.300000 0.120000 0
0.320000 0.120000 0
0.340000 0.120000 0
0.360000 0.120000 0
0.380000 0.120000 0
0.400000 0.120000 0
0.420000 0.120000 0
0.440000 0.120000 0
0.460000 0.120000 0
0.480000 0.120000 0
0.500000 0.120000 0
0.520000 0.120000 0
0.540000 0.120000 0
0.560000 0.120000 0
0.580000 0.120000 0
0.600000 0.120000 0
0.620000 0.120000 0
0.640000 0.120000 0
0.660000 0.120000 0
0.680000 0.120000 0
0.700000 0.120000 0
0.720000 0.120000 0
0.740000 0.120000 0
0.760000 0.120000 0
0.780000 0.120000 0
0.800000 0.120000 0
0.820000 0.120000 0
0.840000 0.120000 0
0.860000 0.120000 0
0.880000 0.120000 0
0.900000 0.120000 0
0.920000 0.120000 0
0.940000 0.120000 0
0.960000 0.120000 0
0.980000 0.120000 0
1.000000 0.120000 0
0.000000 0.140000 0
0.020000 0.140000 0
0.040000 0.140000 0
0.060000 0.140000 0
0.080000 0.140000 0
0.100000 0.140000 0
0.120000 0.140000 0
0.140000 0.140000 0
0.160000 0.140000 0
0.180000 0.140000 0
0.200000 0.140000 0
0.220000 0.140000 0
0.240000 0.140000 0
0.260000 0.140000 0
0.280000 0.140000 0
0.300000 0.140000 0
0.320000 0.140000 0
0.340000 0.140000 0
0.360000 0.140000 0
0.380000 0.140000 0
0.400000 0.140000 0
0.420000 0.140000 0
0.440000 0.140000 0
0.460000 0.140000 0
0.480000 0.140000 0
0.500000 0.140000 0
0.520000 0.140000 0
0.540000 0.140000 0
0.560000 0.140000 0
0.580000 0.140000 0
0.600000 0.140000 0
0.620000 0.140000 0
0.640000 0.140000 0
0.660000 0.140000 0
0.680000 0.140000 0
0.700000 0.140000 0
0.720000 0.140000 0
0.740000 0.140000 0
0.760000 0.140000 0
0.780000 0.140000 0
0.800000 0.140000 0
0.820000 0.140000 0
0.840000 0.140000 0
0.860000 0.140000 0
0.880000 0.140000 0
0.900000 0.140000 0
0.920000 0.140000 0
0.940000 0.140000 0
0.960000 0.140000 0
0.980000 0.140000 0
1.000000 0.140000 0
0.000000 0.160000 0
0.020000 0.160000 0
0.040000 0.160000 0
0.060000 0.160000 0
0.080000 0.160000 0
0.100000 0.160000 0
0.120000 0.160000 0
0.140000 0.160000 0
0.160000 0.160000 0
0.180000 0.160000 0
0.200000 0.160000 0
0.220000 0.160000 0
0.240000 0.160000 0
0.260000 0.160000 0
0.280000 0.160000 0
0.300000 0.160000 0
0.320000 0.160000 0
0.340000 0.160000 0
0.360000 0.160000 0
0.380000 0.160000 0
0.400000 0.160000 0
0.420000 0.160000 0
0.440000 0.160000 0
0.460000 0.160000 0
0.480000 0.160000 0
0.500000 0.160000 0
0.520000 0.160000 0
0.540000 0.160000 0
0.560000 0.160000 0
0.580000 0.160000 0
0.600000 0.160000 0
0.620000 0.160000 0
0.640000 0.160000 0
0.660000 0.160000 0
0.680000 0.160000 0
0.700000 0.160000 0
0.720000 0.160000 0
0.740000 0.160000 0
0.760000 0.160000 0
0.780000 0.160000 0
0.800000 0.160000 0
0.820000 0.160000 0
0.840000 0.160000 0
0.860000 0.160000 0
0.880000 0.160000 0
0.900000 0.160000 0
0.920000 0.160000 0
0.940000 0.160000 0
0.960000 0.160000 0
0.980000 0.160000 0
1.000000 0.160000 0
0.000000 0.180000 0
0.020000 0.180000 0
0.040000 0.180000 0
0.060000 0.180000 0
0.080000 0.180000 0
0.100000 0.180000 0
0.120000 0.180000 0
0.140000 0.180000 0
0.160000 0.180000 0
0.180000 0.180000 0
0.200000 0.180000 0
0.220000 0.180000 0
0.240000 0.180000 0
0.260000 0.180000 0
0.280000 0.180000 0
0.300000 0.180000 0
0.320000 0.180000 0
0.340000 0.180000 0
0.360000 0.180000 0
0.380000 0.180000 0
0.400000 0.180000 0
0.420000 0.180000 0
0.440000 0.180000 0
0.460000 0.180000 0
0.480000 0.180000 0
0.500000 0.180000 0
0.520000 0.180000 0
0.540000 0.180000 0
0.560000 0.180000 0
0.580000 0.180000 0
0.600000 0.180000 0
0.620000 0.180000 0
[...]
POINT_DATA 2601 

VECTORS velocity float
0.000000 0.000000 0
-0.000000 0.000000 0
-0.000000 0.000000 0
-0.000000 0.000000 0
-0.000000 0.000000 0
-0.000001 0.000000 0
-0.000001 0.000000 0
-0.000001 0.000000 0
-0.000001 0.000000 0
-0.000001 0.000000 0
-0.000001 0.000000 0
-0.000000 0.000000 0
0.000000 0.000000 0
0.000000 0.000000 0
0.000001 0.000000 0
0.000002 0.000000 0
0.000003 0.000000 0
0.000004 0.000000 0
0.000005 0.000000 0
0.000006 0.000000 0
0.000007 0.000000 0
0.000009 0.000000 0
0.000011 0.000000 0
0.000012 0.000000 0
0.000014 0.000000 0
0.000016 0.000000 0
0.000017 0.000000 0
0.000019 0.000000 0
0.000020 0.000000 0
0.000021 0.000000 0
0.000022 0.000000 0
0.000023 0.000000 0
0.000024 0.000000 0
0.000024 0.000000 0
0.000024 0.000000 0
0.000024 0.000000 0
0.000024 0.000000 0
0.000023 0.000000 0
0.000022 0.000000 0
0.000021 0.000000 0
0.000020 0.000000 0
0.000018 0.000000 0
0.000016 0.000000 0
0.000015 0.000000 0
0.000013 0.000000 0
0.000011 0.000000 0
0.000008 0.000000 0
0.000006 0.000000 0
0.000004 0.000000 0
0.000002 0.000000 0
0.000000 0.000000 0
0.000000 -0.000000 0
-0.000103 0.000101 0
-0.000313 0.000159 0
-0.000562 0.000176 0
-0.000817 0.000177 0
-0.001070 0.000173 0
-0.001316 0.000167 0
-0.001554 0.000159 0
-0.001781 0.000151 0
-0.001997 0.000140 0
-0.002199 0.000129 0
-0.002385 0.000115 0
-0.002554 0.000100 0
-0.002703 0.000084 0
-0.002830 0.000066 0
-0.002934 0.000046 0
-0.003012 0.000025 0
-0.003062 0.000003 0
-0.003084 -0.000020 0
-0.003077 -0.000043 0
-0.003039 -0.000067 0
-0.002972 -0.000089 0
-0.002875 -0.000111 0
-0.002751 -0.000131 0
-0.002600 -0.000148 0
-0.002427 -0.000163 0
-0.002233 -0.000175 0
-0.002024 -0.000183 0
-0.001802 -0.000188 0
-0.001573 -0.000189 0
-0.001341 -0.000186 0
-0.001110 -0.000179 0
-0.000884 -0.000170 0
-0.000667 -0.000157 0
-0.000464 -0.000141 0
-0.000276 -0.000123 0
-0.000106 -0.000103 0
0.000042 -0.000082 0
0.000169 -0.000061 0
0.000273 -0.000039 0
0.000353 -0.000017 0
0.000411 0.000004 0
0.000446 0.000024 0
0.000460 0.000043 0
0.000455 0.000059 0
0.000433 0.000074 0
0.000395 0.000087 0
0.000343 0.000101 0
0.000268 0.000126 0
0.000153 0.000152 0
0.000000 0.000002 0
0.000000 0.000000 0
-0.000162 0.000311 0
-0.000465 0.000458 0
-0.000815 0.000503 0
-0.001175 0.000507 0
-0.001531 0.000497 0
-0.001880 0.000482 0
-0.002218 0.000464 0
-0.002543 0.000442 0
-0.002854 0.000417 0
-0.003147 0.000387 0
-0.003420 0.000354 0
-0.003672 0.000317 0
-0.003898 0.000275 0
-0.004097 0.000230 0
-0.004266 0.000180 0
-0.004403 0.000128 0
-0.004505 0.000072 0
-0.004571 0.000013 0
-0.004598 -0.000046 0
-0.004586 -0.000106 0
-0.004535 -0.000165 0
-0.004445 -0.000222 0
-0.004318 -0.000276 0
-0.004156 -0.000325 0
-0.003961 -0.000367 0
-0.003737 -0.000403 0
-0.003489 -0.000431 0
-0.003221 -0.000451 0
-0.002939 -0.000462 0
-0.002648 -0.000464 0
-0.002354 -0.000457 0
-0.002060 -0.000442 0
-0.001773 -0.000420 0
-0.001496 -0.000391 0
-0.001233 -0.000357 0
-0.000988 -0.000318 0
-0.000763 -0.000275 0
-0.000561 -0.000230 0
-0.000383 -0.000184 0
-0.000229 -0.000137 0
-0.000099 -0.000092 0
0.000006 -0.000049 0
0.000089 -0.000009 0
0.000151 0.000028 0
0.000193 0.000061 0
0.000219 0.000091 0
0.000226 0.000128 0
0.000207 0.000190 0
0.000135 0.000269 0
0.000000 0.000004 0
0.000000 0.000000 0
-0.000185 0.000565 0
-0.000524 0.000811 0
-0.000913 0.000886 0
-0.001311 0.000893 0
-0.001705 0.000877 0
-0.002091 0.000853 0
-0.002466 0.000822 0
-0.002828 0.000786 0
-0.003174 0.000744 0
-0.003502 0.000695 0
-0.003808 0.000640 0
-0.004092 0.000578 0
-0.004349 0.000509 0
-0.004577 0.000433 0
-0.004772 0.000351 0
-0.004934 0.000263 0
-0.005057 0.000170 0
-0.005142 0.000072 0
-0.005185 -0.000028 0
-0.005185 -0.000130 0
-0.005142 -0.000230 0
-0.005056 -0.000328 0
-0.004928 -0.000421 0
-0.004761 -0.000506 0
-0.004557 -0.000582 0
-0.004321 -0.000647 0
-0.004057 -0.000699 0
-0.003770 -0.000737 0
-0.003467 -0.000762 0
-0.003152 -0.000772 0
-0.002831 -0.000768 0
-0.002511 -0.000750 0
-0.002196 -0.000721 0
-0.001890 -0.000680 0
-0.001599 -0.000630 0
-0.001325 -0.000573 0
-0.001072 -0.000509 0
-0.000842 -0.000441 0
-0.000636 -0.000371 0
-0.000455 -0.000300 0
-0.000299 -0.000231 0
-0.000167 -0.000164 0
-0.000059 -0.000102 0
0.000027 -0.000045 0
0.000094 0.000006 0
0.000143 0.000054 0
0.000173 0.000114 0
0.000176 0.000217 0
0.000125 0.000359 0
0.000000 0.000006 0
0.000000 0.000001 0
-0.000193 0.000834 0
-0.000547 0.001185 0
-0.000951 0.001290 0
-0.001364 0.001299 0
-0.001774 0.001277 0
-0.002175 0.001243 0
-0.002565 0.001200 0
-0.002942 0.001149 0
-0.003303 0.001090 0
-0.003646 0.001021 0
-0.003968 0.000944 0
-0.004266 0.000856 0
-0.004537 0.000760 0
-0.004779 0.000653 0
-0.004988 0.000537 0
-0.005161 0.000412 0
-0.005296 0.000279 0
-0.005389 0.000140 0
-0.005439 -0.000003 0
-0.005443 -0.000149 0
-0.005402 -0.000294 0
-0.005315 -0.000436 0
-0.005183 -0.000571 0
-0.005008 -0.000696 0
-0.004794 -0.000807 0
-0.004544 -0.000903 0
-0.004265 -0.000982 0
-0.003960 -0.001041 0
-0.003638 -0.001080 0
-0.003303 -0.001099 0
-0.002962 -0.001098 0
-0.002622 -0.001078 0
-0.002287 -0.001041 0
-0.001964 -0.000988 0
-0.001656 -0.000922 0
-0.001367 -0.000844 0
-0.001101 -0.000758 0
-0.000859 -0.000666 0
-0.000644 -0.000571 0
-0.000455 -0.000474 0
-0.000294 -0.000379 0
-0.000159 -0.000288 0
-0.000048 -0.000203 0
0.000039 -0.000125 0
0.000106 -0.000055 0
0.000154 0.000012 0
0.000183 0.000094 0
0.000185 0.000239 0
0.000130 0.000446 0
0.000000 0.000009 0
0.000000 0.000001 0
-0.000198 0.001110 0
-0.000559 0.001568 0
-0.000972 0.001703 0
-0.001395 0.001715 0
-0.001814 0.001687 0
-0.002224 0.001644 0
-0.002624 0.001589 0
-0.003011 0.001523 0
-0.003383 0.001447 0
-0.003736 0.001359 0
-0.004070 0.001259 0
-0.004379 0.001147 0
-0.004663 0.001022 0
-0.004916 0.000884 0
-0.005137 0.000733 0
-0.005321 0.000570 0
-0.005466 0.000397 0
-0.005568 0.000215 0
-0.005625 0.000026 0
-0.005634 -0.000167 0
-0.005594 -0.000359 0
-0.005505 -0.000548 0
-0.005367 -0.000728 0
-0.005183 -0.000895 0
-0.004956 -0.001046 0
-0.004690 -0.001176 0
-0.004391 -0.001283 0
-0.004065 -0.001364 0
-0.003720 -0.001419 0
-0.003362 -0.001447 0
-0.002998 -0.001449 0
-0.002635 -0.001425 0
-0.002279 -0.001379 0
-0.001937 -0.001312 0
-0.001612 -0.001227 0
-0.001309 -0.001128 0
-0.001032 -0.001017 0
-0.000782 -0.000898 0
-0.000561 -0.000775 0
-0.000370 -0.000650 0
-0.000209 -0.000527 0
-0.000077 -0.000410 0
0.000028 -0.000299 0
0.000108 -0.000199 0
0.000166 -0.000108 0
0.000203 -0.000022 0
0.000221 0.000084 0
0.000210 0.000270 0
0.000143 0.000544 0
0.000000 0.000011 0
0.000000 0.000001 0
-0.000202 0.001392 0
-0.000570 0.001959 0
-0.000991 0.002125 0
-0.001422 0.002140 0
-0.001850 0.002106 0
-0.002270 0.002053 0
-0.002679 0.001987 0
-0.003077 0.001907 0
-0.003459 0.001815 0
-0.003824 0.001708 0
-0.004170 0.001586 0
-0.004493 0.001449 0
-0.004790 0.001296 0
-0.005057 0.001127 0
-0.005292 0.000941 0
-0.005490 0.000741 0
-0.005648 0.000526 0
-0.005762 0.000298 0
-0.005828 0.000062 0
-0.005843 -0.000180 0
-0.005806 -0.000424 0
-0.005715 -0.000663 0
-0.005571 -0.000893 0
-0.005376 -0.001107 0
-0.005133 -0.001301 0
-0.004847 -0.001468 0
-0.004524 -0.001607 0
-0.004172 -0.001712 0
-0.003798 -0.001784 0
-0.003410 -0.001821 0
-0.003017 -0.001825 0
-0.002626 -0.001797 0
-0.002244 -0.001739 0
-0.001877 -0.001655 0
-0.001532 -0.001549 0
-0.001212 -0.001424 0
-0.000922 -0.001285 0
-0.000663 -0.001136 0
-0.000437 -0.000982 0
-0.000245 -0.000826 0
-0.000086 -0.000672 0
0.000041 -0.000525 0
0.000137 -0.000388 0
0.000206 -0.000262 0
0.000250 -0.000150 0
0.000273 -0.000043 0
0.000274 0.000088 0
0.000245 0.000317 0
0.000159 0.000657 0
0.000000 0.000014 0
0.000000 0.000001 0
-0.000206 0.001679 0
-0.000582 0.002358 0
-0.001012 0.002555 0
-0.001453 0.002573 0
-0.001890 0.002534 0
-0.002320 0.002473 0
-0.002741 0.002395 0
-0.003149 0.002303 0
-0.003544 0.002194 0
-0.003923 0.002069 0
-0.004283 0.001927 0
-0.004622 0.001766 0
-0.004935 0.001586 0
-0.005220 0.001386 0
-0.005472 0.001165 0
-0.005688 0.000926 0
-0.005862 0.000668 0
-0.005991 0.000394 0
-0.006070 0.000107 0
-0.006095 -0.000189 0
-0.006063 -0.000487 0
-0.005972 -0.000782 0
-0.005821 -0.001067 0
-0.005614 -0.001334 0
-0.005352 -0.001575 0
-0.005041 -0.001785 0
-0.004689 -0.001958 0
-0.004303 -0.002091 0
-0.003893 -0.002181 0
-0.003468 -0.002228 0
-0.003037 -0.002233 0
-0.002611 -0.002199 0
-0.002196 -0.002127 0
-0.001800 -0.002024 0
-0.001429 -0.001892 0
-0.001088 -0.001738 0
-0.000781 -0.001566 0
-0.000511 -0.001383 0
-0.000279 -0.001192 0
-0.000086 -0.001001 0
0.000070 -0.000812 0
0.000189 -0.000632 0
0.000274 -0.000464 0
0.000329 -0.000312 0
0.000356 -0.000175 0
0.000359 -0.000045 0
0.000339 0.000111 0
0.000289 0.000385 0
0.000179 0.000789 0
0.000000 0.000016 0
0.000000 0.000002 0
-0.000211 0.001973 0
-0.000596 0.002765 0
-0.001036 0.002995 0
-0.001487 0.003017 0
-0.001935 0.002973 0
-0.002376 0.002903 0
-0.002809 0.002816 0
-0.003232 0.002711 0
-0.003641 0.002588 0
-0.004035 0.002446 0
-0.004412 0.002284 0
-0.004769 0.002100 0
-0.005102 0.001894 0
-0.005407 0.001663 0
-0.005681 0.001409 0
-0.005918 0.001130 0
-0.006113 0.000829 0
-0.006262 0.000506 0
-0.006358 0.000165 0
-0.006396 -0.000188 0
-0.006373 -0.000547 0
-0.006283 -0.000905 0
-0.006128 -0.001251 0
-0.005906 -0.001577 0
-0.005622 -0.001874 0
-0.005282 -0.002132 0
-0.004893 -0.002345 0
-0.004465 -0.002509 0
-0.004010 -0.002619 0
-0.003539 -0.002677 0
-0.003063 -0.002682 0
-0.002592 -0.002639 0
-0.002136 -0.002550 0
-0.001703 -0.002422 0
-0.001300 -0.002261 0
-0.000934 -0.002072 0
-0.000607 -0.001862 0
-0.000324 -0.001638 0
-0.000085 -0.001407 0
0.000109 -0.001174 0
0.000260 -0.000946 0
0.000369 -0.000729 0
0.000440 -0.000527 0
0.000477 -0.000343 0
0.000483 -0.000179 0
0.000463 -0.000026 0
0.000418 0.000159 0
0.000340 0.000479 0
0.000202 0.000946 0
0.000000 0.000019 0
0.000000 0.000002 0
-0.000217 0.002274 0
-0.000611 0.003182 0
-0.001062 0.003445 0
-0.001524 0.003472 0
-0.001984 0.003424 0
-0.002439 0.003347 0
-0.002886 0.003250 0
-0.003323 0.003134 0
-0.003748 0.002998 0
-0.004160 0.002840 0
-0.004556 0.002660 0
-0.004934 0.002455 0
-0.005289 0.002223 0
-0.005618 0.001964 0
-0.005918 0.001676 0
-0.006181 0.001358 0
-0.006403 0.001012 0
-0.006577 0.000638 0
-0.006696 0.000241 0
-0.006753 -0.000175 0
-0.006742 -0.000601 0
-0.006658 -0.001028 0
-0.006498 -0.001445 0
-0.006261 -0.001840 0
-0.005952 -0.002200 0
-0.005577 -0.002515 0
-0.005144 -0.002775 0
-0.004666 -0.002974 0
-0.004155 -0.003108 0
-0.003627 -0.003177 0
-0.003093 -0.003181 0
-0.002567 -0.003126 0
-0.002060 -0.003016 0
-0.001583 -0.002859 0
-0.001142 -0.002661 0
-0.000744 -0.002430 0
-0.000395 -0.002176 0
-0.000096 -0.001904 0
0.000151 -0.001625 0
0.000346 -0.001345 0
0.000490 -0.001072 0
0.000587 -0.000812 0
0.000640 -0.000571 0
0.000654 -0.000353 0
0.000634 -0.000160 0
0.000585 0.000020 0
0.000510 0.000234 0
0.000401 0.000601 0
0.000230 0.001130 0
0.000000 0.000022 0
0.000000 0.000003 0
-0.000223 0.002583 0
-0.000627 0.003609 0
-0.001089 0.003908 0
-0.001564 0.003939 0
-0.002038 0.003887 0
-0.002506 0.003804 0
-0.002968 0.003699 0
-0.003421 0.003573 0
-0.003865 0.003425 0
-0.004296 0.003254 0
-0.004713 0.003057 0
-0.005114 0.002832 0
-0.005495 0.002578 0
-0.005853 0.002291 0
-0.006182 0.001971 0
-0.006477 0.001615 0
-0.006731 0.001224 0
-0.006937 0.000798 0
-0.007085 0.000341 0
-0.007168 -0.000143 0
-0.007176 -0.000643 0
-0.007102 -0.001149 0
-0.006941 -0.001648 0
-0.006691 -0.002123 0
-0.006354 -0.002559 0
-0.005937 -0.002941 0
-0.005451 -0.003257 0
-0.004911 -0.003498 0
-0.004333 -0.003659 0
-0.003733 -0.003740 0
-0.003128 -0.003742 0
-0.002535 -0.003671 0
-0.001966 -0.003535 0
-0.001434 -0.003341 0
-0.000946 -0.003099 0
-0.000512 -0.002818 0
-0.000135 -0.002510 0
0.000182 -0.002183 0
0.000437 -0.001847 0
0.000630 -0.001512 0
0.000765 -0.001186 0
0.000846 -0.000878 0
0.000876 -0.000593 0
0.000862 -0.000337 0
0.000811 -0.000110 0
0.000729 0.000099 0
0.000617 0.000344 0
0.000471 0.000760 0
0.000261 0.001347 0
0.000000 0.000025 0
0.000000 0.000003 0
-0.000229 0.002900 0
-0.000644 0.004048 0
-0.001119 0.004383 0
-0.001607 0.004420 0
-0.002095 0.004365 0
-0.002578 0.004276 0
-0.003056 0.004164 0
-0.003526 0.004030 0
-0.003989 0.003872 0
-0.004441 0.003688 0
-0.004882 0.003477 0
-0.005309 0.003236 0
-0.005718 0.002961 0
-0.006107 0.002650 0
-0.006471 0.002299 0
-0.006803 0.001907 0
-0.007096 0.001471 0
-0.007342 0.000992 0
-0.007529 0.000472 0
-0.007646 -0.000084 0
-0.007682 -0.000667 0
-0.007626 -0.001264 0
-0.007469 -0.001857 0
-0.007207 -0.002428 0
-0.006840 -0.002955 0
-0.006376 -0.003418 0
-0.005827 -0.003802 0
-0.005211 -0.004094 0
-0.004549 -0.004287 0
-0.003861 -0.004381 0
-0.003169 -0.004379 0
-0.002493 -0.004288 0
-0.001848 -0.004117 0
-0.001248 -0.003878 0
-0.000705 -0.003582 0
-0.000226 -0.003241 0
0.000183 -0.002868 0
0.000519 -0.002474 0
0.000781 -0.002072 0
0.000972 -0.001673 0
0.001094 -0.001286 0
0.001152 -0.000922 0
0.001154 -0.000587 0
0.001107 -0.000288 0
0.001017 -0.000025 0
0.000894 0.000215 0
0.000740 0.000493 0
0.000550 0.000959 0
0.000296 0.001601 0
0.000000 0.000028 0
0.000000 0.000003 0
-0.000235 0.003225 0
-0.000661 0.004499 0
-0.001150 0.004871 0
-0.001652 0.004915 0
-0.002154 0.004858 0
-0.002653 0.004764 0
-0.003147 0.004647 0
-0.003636 0.004505 0
-0.004118 0.004339 0
-0.004593 0.004146 0
-0.005059 0.003924 0
-0.005514 0.003668 0
-0.005955 0.003376 0
-0.006379 0.003044 0
-0.006782 0.002666 0
-0.007157 0.002240 0
-0.007497 0.001762 0
-0.007791 0.001230 0
-0.008027 0.000644 0
-0.008190 0.000010 0
-0.008266 -0.000664 0
-0.008239 -0.001363 0
-0.008095 -0.002068 0
-0.007826 -0.002753 0
-0.007430 -0.003391 0
-0.006912 -0.003955 0
-0.006288 -0.004422 0
-0.005580 -0.004777 0
-0.004813 -0.005009 0
-0.004016 -0.005119 0
-0.003216 -0.005109 0
-0.002437 -0.004992 0
-0.001698 -0.004778 0
-0.001017 -0.004482 0
-0.000407 -0.004119 0
0.000124 -0.003705 0
0.000570 -0.003254 0
0.000927 -0.002780 0
0.001197 -0.002299 0
0.001381 -0.001824 0
0.001484 -0.001366 0
0.001514 -0.000937 0
0.001480 -0.000546 0
0.001390 -0.000199 0
0.001255 0.000103 0
0.001083 0.000376 0
0.000880 0.000688 0
0.000640 0.001204 0
0.000336 0.001898 0
0.000000 0.000031 0
0.000000 0.000004 0
-0.000242 0.003560 0
-0.000679 0.004962 0
-0.001181 0.005373 0
-0.001698 0.005424 0
-0.002215 0.005366 0
-0.002730 0.005269 0
-0.003241 0.005147 0
-0.003749 0.005000 0
-0.004252 0.004828 0
-0.004750 0.004628 0
-0.005241 0.004397 0
-0.005726 0.004132 0
-0.006201 0.003826 0
-0.006664 0.003477 0
-0.007111 0.003077 0
-0.007535 0.002621 0
-0.007929 0.002104 0
-0.008281 0.001521 0
-0.008578 0.000871 0
-0.008803 0.000154 0
-0.008935 -0.000619 0
-0.008952 -0.001436 0
-0.008836 -0.002271 0
-0.008570 -0.003094 0
-0.008146 -0.003869 0
-0.007570 -0.004560 0
-0.006858 -0.005135 0
-0.006036 -0.005569 0
-0.005140 -0.005850 0
-0.004206 -0.005977 0
-0.003270 -0.005957 0
-0.002362 -0.005804 0
-0.001508 -0.005535 0
-0.000728 -0.005168 0
-0.000037 -0.004722 0
0.000556 -0.004216 0
0.001043 -0.003670 0
0.001423 -0.003100 0
0.001697 -0.002525 0
0.001869 -0.001960 0
0.001946 -0.001419 0
0.001939 -0.000917 0
0.001858 -0.000462 0
0.001715 -0.000062 0
0.001524 0.000282 0
0.001295 0.000590 0
0.001035 0.000937 0
0.000738 0.001503 0
0.000378 0.002241 0
0.000000 0.000034 0
0.000000 0.000005 0
-0.000248 0.003903 0
-0.000697 0.005438 0
-0.001213 0.005889 0
-0.001744 0.005948 0
-0.002276 0.005890 0
-0.002807 0.005790 0
-0.003336 0.005665 0
-0.003862 0.005515 0
-0.004386 0.005340 0
-0.004908 0.005136 0
-0.005427 0.004900 0
-0.005942 0.004627 0
-0.006453 0.004314 0
-0.006957 0.003953 0
-0.007451 0.003536 0
-0.007930 0.003057 0
-0.008386 0.002507 0
-0.008808 0.001879 0
-0.009180 0.001165 0
-0.009483 0.000366 0
-0.009691 -0.000515 0
-0.009776 -0.001463 0
-0.009708 -0.002452 0
-0.009461 -0.003443 0
-0.009020 -0.004391 0
-0.008383 -0.005244 0
-0.007568 -0.005956 0
-0.006608 -0.006494 0
-0.005550 -0.006838 0
-0.004443 -0.006988 0
-0.003334 -0.006952 0
-0.002264 -0.006752 0
-0.001266 -0.006410 0
-0.000364 -0.005952 0
0.000425 -0.005402 0
0.001090 -0.004784 0
0.001624 -0.004120 0
0.002027 -0.003434 0
0.002301 -0.002744 0
0.002453 -0.002072 0
0.002493 -0.001435 0
0.002434 -0.000848 0
0.002293 -0.000323 0
0.002085 0.000134 0
0.001827 0.000523 0
0.001531 0.000866 0
0.001205 0.001246 0
0.000845 0.001861 0
0.000424 0.002636 0
0.000000 0.000036 0
0.000000 0.000005 0
-0.000254 0.004256 0
-0.000715 0.005927 0
-0.001244 0.006419 0
-0.001789 0.006487 0
-0.002337 0.006429 0
-0.002884 0.006328 0
-0.003430 0.006201 0
-0.003975 0.006050 0
-0.004520 0.005874 0
-0.005065 0.005668 0
-0.005611 0.005431 0
-0.006158 0.005157 0
-0.006705 0.004841 0
-0.007252 0.004474 0
-0.007797 0.004049 0
-0.008336 0.003555 0
-0.008861 0.002981 0
-0.009363 0.002314 0
-0.009825 0.001545 0
-0.010226 0.000664 0
-0.010536 -0.000327 0
-0.010718 -0.001420 0
-0.010730 -0.002586 0
-0.010530 -0.003783 0
-0.010090 -0.004948 0
-0.009396 -0.006012 0
-0.008465 -0.006909 0
-0.007337 -0.007585 0
-0.006073 -0.008014 0
-0.004743 -0.008192 0
-0.003412 -0.008134 0
-0.002135 -0.007870 0
-0.000955 -0.007433 0
0.000099 -0.006857 0
0.001006 -0.006174 0
0.001755 -0.005415 0
0.002341 -0.004607 0
0.002765 -0.003777 0
0.003030 -0.002950 0
0.003149 -0.002151 0
0.003136 -0.001401 0
0.003009 -0.000717 0
0.002791 -0.000113 0
0.002501 0.000404 0
0.002161 0.000837 0
0.001786 0.001212 0
0.001386 0.001623 0
0.000956 0.002284 0
0.000470 0.003086 0
0.000000 0.000039 0
0.000000 0.000006 0
-0.000259 0.004617 0
-0.000732 0.006428 0
-0.001275 0.006963 0
-0.001834 0.007040 0
-0.002397 0.006984 0
-0.002959 0.006882 0
-0.003522 0.006756 0
-0.004085 0.006605 0
-0.004650 0.006429 0
-0.005218 0.006226 0
-0.005790 0.005992 0
-0.006368 0.005721 0
-0.006952 0.005408 0
-0.007543 0.005044 0
-0.008141 0.004619 0
-0.008742 0.004120 0
-0.009343 0.003533 0
-0.009934 0.002842 0
-0.010502 0.002028 0
-0.011023 0.001076 0
-0.011465 -0.000025 0
-0.011781 -0.001271 0
-0.011916 -0.002640 0
-0.011808 -0.004083 0
-0.011404 -0.005524 0
-0.010672 -0.006868 0
-0.009617 -0.008015 0
-0.008286 -0.008884 0
-0.006761 -0.009431 0
-0.005139 -0.009648 0
-0.003515 -0.009559 0
-0.001967 -0.009207 0
-0.000552 -0.008642 0
0.000691 -0.007911 0
0.001742 -0.007058 0
0.002590 -0.006119 0
0.003231 -0.005130 0
0.003669 -0.004123 0
0.003913 -0.003129 0
0.003980 -0.002178 0
0.003890 -0.001296 0
0.003672 -0.000503 0
0.003352 0.000186 0
0.002960 0.000764 0
0.002521 0.001239 0
0.002055 0.001641 0
0.001572 0.002075 0
0.001068 0.002777 0
0.000515 0.003593 0
0.000000 0.000041 0
0.000000 0.000006 0
-0.000265 0.004987 0
-0.000748 0.006941 0
-0.001304 0.007521 0
-0.001878 0.007609 0
-0.002455 0.007553 0
-0.003032 0.007453 0
-0.003610 0.007327 0
-0.004190 0.007178 0
-0.004774 0.007006 0
-0.005364 0.006808 0
-0.005962 0.006581 0
-0.006569 0.006319 0
-0.007189 0.006016 0
-0.007823 0.005662 0
-0.008473 0.005247 0
-0.009138 0.004756 0
-0.009818 0.004172 0
-0.010506 0.003472 0
-0.011192 0.002633 0
-0.011855 0.001626 0
-0.012460 0.000430 0
-0.012957 -0.000969 0
-0.013274 -0.002559 0
-0.013324 -0.004294 0
-0.013019 -0.006084 0
-0.012290 -0.007799 0
-0.011120 -0.009293 0
-0.009554 -0.010440 0
-0.007696 -0.011160 0
-0.005687 -0.011436 0
-0.003667 -0.011305 0
-0.001753 -0.010831 0
-0.000029 -0.010090 0
0.001458 -0.009151 0
0.002686 -0.008073 0
0.003648 -0.006904 0
0.004345 -0.005686 0
0.004785 -0.004459 0
0.004985 -0.003261 0
0.004970 -0.002128 0
0.004771 -0.001093 0
0.004427 -0.000179 0
0.003975 0.000598 0
0.003455 0.001235 0
0.002898 0.001743 0
0.002327 0.002161 0
0.001755 0.002610 0
0.001174 0.003343 0
0.000554 0.004155 0
0.000000 0.000042 0
0.000000 0.000007 0
-0.000269 0.005364 0
-0.000763 0.007467 0
-0.001332 0.008092 0
-0.001919 0.008191 0
-0.002510 0.008137 0
-0.003101 0.008037 0
-0.003693 0.007914 0
-0.004289 0.007769 0
-0.004891 0.007603 0
-0.005500 0.007413 0
-0.006121 0.007196 0
-0.006756 0.006948 0
-0.007409 0.006661 0
-0.008084 0.006327 0
-0.008784 0.005934 0
-0.009513 0.005465 0
-0.010272 0.004900 0
-0.011060 0.004215 0
-0.011873 0.003375 0
-0.012694 0.002343 0
-0.013494 0.001077 0
-0.014223 -0.000457 0
-0.014794 -0.002273 0