# vtk DataFile Version 2.0
generated by CFD-lab course output (written by Tobias Neckel) 
ASCII

DATASET STRUCTURED_GRID
DIMENSIONS  51 51 1 
POINTS 2601 float

0.000000 0.000000 0
0.020000 0.000000 0
0.040000 0.000000 0
0.060000 0.000000 0
0.080000 0.000000 0
0.100000 0.000000 0
0.120000 0.000000 0
0.140000 0.000000 0
0.160000 0.000000 0
0.180000 0.000000 0
0.200000 0.000000 0
0.220000 0.000000 0
0.240000 0.000000 0
0.260000 0.000000 0
0.280000 0.000000 0
0.300000 0.000000 0
0.320000 0.000000 0
0.340000 0.000000 0
0.360000 0.000000 0
0.380000 0.000000 0
0.400000 0.000000 0
0.420000 0.000000 0
0.440000 0.000000 0
0.460000 0.000000 0
0.480000 0.000000 0
0.500000 0.000000 0
0.520000 0.000000 0
0.540000 0.000000 0
0.560000 0.000000 0
0.580000 0.000000 0
0.600000 0.000000 0
0.620000 0.000000 0
0.640000 0.000000 0
0.660000 0.000000 0
0.680000 0.000000 0
0.700000 0.000000 0
0.720000 0.000000 0
0.740000 0.000000 0
0.760000 0.000000 0
0.780000 0.000000 0
0.800000 0.000000 0
0.820000 0.000000 0
0.840000 0.000000 0
0.860000 0.000000 0
0.880000 0.000000 0
0.900000 0.000000 0
0.920000 0.000000 0
0.940000 0.000000 0
0.960000 0.000000 0
0.980000 0.000000 0
1.000000 0.000000 0
0.000000 0.020000 0
0.020000 0.020000 0
0.040000 0.020000 0
0.060000 0.020000 0
0.080000 0.020000 0
0.100000 0.020000 0
0.120000 0.020000 0
0.140000 0.020000 0
0.160000 0.020000 0
0.180000 0.020000 0
0.200000 0.020000 0
0.220000 0.020000 0
0.240000 0.020000 0
0.260000 0.020000 0
0.280000 0.020000 0
0.300000 0.020000 0
0.320000 0.020000 0
0.340000 0.020000 0
0.360000 0.020000 0
0.380000 0.020000 0
0.400000 0.020000 0
0.420000 0.020000 0
0.440000 0.020000 0
0.460000 0.020000 0
0.480000 0.020000 0
0.500000 0.020000 0
0.520000 0.020000 0
0.540000 0.020000 0
0.560000 0.020000 0
0.580000 0.020000 0
0.600000 0.020000 0
0.620000 0.020000 0
0.640000 0.020000 0
0.660000 0.020000 0
0.680000 0.020000 0
0.700000 0.020000 0
0.720000 0.020000 0
0.740000 0.020000 0
0.760000 0.020000 0
0.780000 0.020000 0
0.800000 0.020000 0
0.820000 0.020000 0
0.840000 0.020000 0
0.860000 0.020000 0
0.880000 0.020000 0
0.900000 0.020000 0
0.920000 0.020000 0
0.940000 0.020000 0
0.960000 0.020000 0
0.980000 0.020000 0
1.000000 0.020000 0
0.000000 0.040000 0
0.020000 0.040000 0
0.040000 0.040000 0
0.060000 0.040000 0
0.080000 0.040000 0
0.100000 0.040000 0
0.120000 0.040000 0
0.140000 0.040000 0
0.160000 0.040000 0
0.180000 0.040000 0
0.200000 0.040000 0
0.220000 0.040000 0
0.240000 0.040000 0
0.260000 0.040000 0
0.280000 0.040000 0
0.300000 0.040000 0
0.320000 0.040000 0
0.340000 0.040000 0
0.360000 0.040000 0
0.380000 0.040000 0
0.400000 0.040000 0
0.420000 0.040000 0
0.440000 0.040000 0
0.460000 0.040000 0
0.480000 0.040000 0
0.500000 0.040000 0
0.520000 0.040000 0
0.540000 0.040000 0
0.560000 0.040000 0
0.580000 0.040000 0
0.600000 0.040000 0
0.620000 0.040000 0
0.640000 0.040000 0
0.660000 0.040000 0
0.680000 0.040000 0
0.700000 0.040000 0
0.720000 0.040000 0
0.740000 0.040000 0
0.760000 0.040000 0
0.780000 0.040000 0
0.800000 0.040000 0
0.820000 0.040000 0
0.840000 0.040000 0
0.860000 0.040000 0
0.880000 0.040000 0
0.900000 0.040000 0
0.920000 0.040000 0
0.940000 0.040000 0
0.960000 0.040000 0
0.980000 0.040000 0
1.000000 0.040000 0
0.000000 0.060000 0
0.020000 0.060000 0
0.040000 0.060000 0
0.060000 0.060000 0
0.080000 0.060000 0
0.100000 0.060000 0
0.120000 0.060000 0
0.140000 0.060000 0
0.160000 0.060000 0
0.180000 0.060000 0
0.200000 0.060000 0
0.220000 0.060000 0
0.240000 0.060000 0
0.260000 0.060000 0
0.280000 0.060000 0
0.300000 0.060000 0
0.320000 0.060000 0
0.340000 0.060000 0
0.360000 0.060000 0
0.380000 0.060000 0
0.400000 0.060000 0
0.420000 0.060000 0
0.440000 0.060000 0
0.460000 0.060000 0
0.480000 0.060000 0
0.500000 0.060000 0
0.520000 0.060000 0
0.540000 0.060000 0
0.560000 0.060000 0
0.580000 0.060000 0
0.600000 0.060000 0
0.620000 0.060000 0
0.640000 0.060000 0
0.660000 0.060000 0
0.680000 0.060000 0
0.700000 0.060000 0
0.720000 0.060000 0
0.740000 0.060000 0
0.760000 0.060000 0
0.780000 0.060000 0
0.800000 0.060000 0
0.820000 0.060000 0
0.840000 0.060000 0
0.860000 0.060000 0
0.880000 0.060000 0
0.900000 0.060000 0
0.920000 0.060000 0
0.940000 0.060000 0
0.960000 0.060000 0
0.980000 0.060000 0
1.000000 0.060000 0
0.000000 0.080000 0
0.020000 0.080000 0
0.040000 0.080000 0
0.060000 0.080000 0
0.080000 0.080000 0
0.100000 0.080000 0
0.120000 0.080000 0
0.140000 0.080000 0
0.160000 0.080000 0
0.180000 0.080000 0
0.200000 0.080000 0
0.220000 0.080000 0
0.240000 0.080000 0
0.260000 0.080000 0
0.280000 0.080000 0
0.300000 0.080000 0
0.320000 0.080000 0
0.340000 0.080000 0
0.360000 0.080000 0
0.380000 0.080000 0
0.400000 0.080000 0
0.420000 0.080000 0
0.440000 0.080000 0
0.460000 0.080000 0
0.480000 0.080000 0
0.500000 0.080000 0
0.520000 0.080000 0
0.540000 0.080000 0
0.560000 0.080000 0
0.580000 0.080000 0
0.600000 0.080000 0
0.620000 0.080000 0
0.640000 0.080000 0
0.660000 0.080000 0
0.680000 0.080000 0
0.700000 0.080000 0
0.720000 0.080000 0
0.740000 0.080000 0
0.760000 0.080000 0
0.780000 0.080000 0
0.800000 0.080000 0
0.820000 0.080000 0
0.840000 0.080000 0
0.860000 0.080000 0
0.880000 0.080000 0
0.900000 0.080000 0
0.920000 0.080000 0
0.940000 0.080000 0
0.960000 0.080000 0
0.980000 0.080000 0
1.000000 0.080000 0
0.000000 0.100000 0
0.020000 0.100000 0
0.040000 0.100000 0
0.060000 0.100000 0
0.080000 0.100000 0
0.100000 0.100000 0
0.120000 0.100000 0
0.140000 0.100000 0
0.160000 0.100000 0
0.180000 0.100000 0
0.200000 0.100000 0
0.220000 0.100000 0
0.240000 0.100000 0
0.260000 0.100000 0
0.280000 0.100000 0
0.300000 0.100000 0
0.320000 0.100000 0
0.340000 0.100000 0
0.360000 0.100000 0
0.380000 0.100000 0
0.400000 0.100000 0
0.420000 0.100000 0
0.440000 0.100000 0
0.460000 0.100000 0
0.480000 0.100000 0
0.500000 0.100000 0
0.520000 0.100000 0
0.540000 0.100000 0
0.560000 0.100000 0
0.580000 0.100000 0
0.600000 0.100000 0
0.620000 0.100000 0
0.640000 0.100000 0
0.660000 0.100000 0
0.680000 0.100000 0
0.700000 0.100000 0
0.720000 0.100000 0
0.740000 0.100000 0
0.760000 0.100000 0
0.780000 0.100000 0
0.800000 0.100000 0
0.820000 0.100000 0
0.840000 0.100000 0
0.860000 0.100000 0
0.880000 0.100000 0
0.900000 0.100000 0
0.920000 0.100000 0
0.940000 0.100000 0
0.960000 0.100000 0
0.980000 0.100000 0
1.000000 0.100000 0
0.000000 0.120000 0
0.020000 0.120000 0
0.040000 0.120000 0
0.060000 0.120000 0
0.080000 0.120000 0
0.100000 0.120000 0
0.120000 0.120000 0
0.140000 0.120000 0
0.160000 0.120000 0
0.180000 0.120000 0
0.200000 0.120000 0
0.220000 0.120000 0
0.240000 0.120000 0
0.260000 0.120000 0
0.280000 0.120000 0
0.300000 0.120000 0
0.320000 0.120000 0
0.340000 0.120000 0
0.360000 0.120000 0
0.380000 0.120000 0
0.400000 0.120000 0
0.420000 0.120000 0
0.440000 0.120000 0
0.460000 0.120000 0
0.480000 0.120000 0
0.500000 0.120000 0
0.520000 0.120000 0
0.540000 0.120000 0
0.560000 0.120000 0
0.580000 0.120000 0
0.600000 0.120000 0
0.620000 0.120000 0
0.640000 0.120000 0
0.660000 0.120000 0
0.680000 0.120000 0
0.700000 0.120000 0
0.720000 0.120000 0
0.740000 0.120000 0
0.760000 0.120000 0
0.780000 0.120000 0
0.800000 0.120000 0
0.820000 0.120000 0
0.840000 0.120000 0
0.860000 0.120000 0
0.880000 0.120000 0
0.900000 0.120000 0
0.920000 0.120000 0
0.940000 0.120000 0
0.960000 0.120000 0
0.980000 0.120000 0
1.000000 0.120000 0
0.000000 0.140000 0
0.020000 0.140000 0
0.040000 0.140000 0
0.060000 0.140000 0
0.080000 0.140000 0
0.100000 0.140000 0
0.120000 0.140000 0
0.140000 0.140000 0
0.160000 0.140000 0
0.180000 0.140000 0
0.200000 0.140000 0
0.220000 0.140000 0
0.240000 0.140000 0
0.260000 0.140000 0
0.280000 0.140000 0
0.300000 0.140000 0
0.320000 0.140000 0
0.340000 0.140000 0
0.360000 0.140000 0
0.380000 0.140000 0
0.400000 0.140000 0
0.420000 0.140000 0
0.440000 0.140000 0
0.460000 0.140000 0
0.480000 0.140000 0
0.500000 0.140000 0
0.520000 0.140000 0
0.540000 0.140000 0
0.560000 0.140000 0
0.580000 0.140000 0
0.600000 0.140000 0
0.620000 0.140000 0
0.640000 0.140000 0
0.660000 0.140000 0
0.680000 0.140000 0
0.700000 0.140000 0
0.720000 0.140000 0
0.740000 0.140000 0
0.760000 0.140000 0
0.780000 0.140000 0
0.800000 0.140000 0
0.820000 0.140000 0
0.840000 0.140000 0
0.860000 0.140000 0
0.880000 0.140000 0
0.900000 0.140000 0
0.920000 0.140000 0
0.940000 0.140000 0
0.960000 0.140000 0
0.980000 0.140000 0
1.000000 0.140000 0
0.000000 0.160000 0
0.020000 0.160000 0
0.040000 0.160000 0
0.060000 0.160000 0
0.080000 0.160000 0
0.100000 0.160000 0
0.120000 0.160000 0
0.140000 0.160000 0
0.160000 0.160000 0
0.180000 0.160000 0
0.200000 0.160000 0
0.220000 0.160000 0
0.240000 0.160000 0
0.260000 0.160000 0
0.280000 0.160000 0
0.300000 0.160000 0
0.320000 0.160000 0
0.340000 0.160000 0
0.360000 0.160000 0
0.380000 0.160000 0
0.400000 0.160000 0
0.420000 0.160000 0
0.440000 0.160000 0
0.460000 0.160000 0
0.480000 0.160000 0
0.500000 0.160000 0
0.520000 0.160000 0
0.540000 0.160000 0
0.560000 0.160000 0
0.580000 0.160000 0
0.600000 0.160000 0
0.620000 0.160000 0
0.640000 0.160000 0
0.660000 0.160000 0
0.680000 0.160000 0
0.700000 0.160000 0
0.720000 0.160000 0
0.740000 0.160000 0
0.760000 0.160000 0
0.780000 0.160000 0
0.800000 0.160000 0
0.820000 0.160000 0
0.840000 0.160000 0
0.860000 0.160000 0
0.880000 0.160000 0
0.900000 0.160000 0
0.920000 0.160000 0
0.940000 0.160000 0
0.960000 0.160000 0
0.980000 0.160000 0
1.000000 0.160000 0
0.000000 0.180000 0
0.020000 0.180000 0
0.040000 0.180000 0
0.060000 0.180000 0
0.080000 0.180000 0
0.100000 0.180000 0
0.120000 0.180000 0
0.140000 0.180000 0
0.160000 0.180000 0
0.180000 0.180000 0
0.200000 0.180000 0
0.220000 0.180000 0
0.240000 0.180000 0
0.260000 0.180000 0
0.280000 0.180000 0
0.300000 0.180000 0
0.320000 0.180000 0
0.340000 0.180000 0
0.360000 0.180000 0
0.380000 0.180000 0
0.400000 0.180000 0
0.420000 0.180000 0
0.440000 0.180000 0
0.460000 0.180000 0
0.480000 0.180000 0
0.500000 0.180000 0
0.520000 0.180000 0
0.540000 0.180000 0
0.560000 0.180000 0
0.580000 0.180000 0
0.600000 0.180000 0
0.620000 0.180000 0
[...]
POINT_DATA 2601 

VECTORS velocity float
0.000000 0.000000 0
-0.000003 0.000000 0
-0.000005 0.000000 0
-0.000006 0.000000 0
-0.000006 0.000000 0
-0.000003 0.000000 0
0.000002 0.000000 0
0.000008 0.000000 0
0.000016 0.000000 0
0.000024 0.000000 0
0.000032 0.000000 0
0.000037 0.000000 0
0.000040 0.000000 0
0.000038 0.000000 0
0.000034 0.000000 0
0.000028 0.000000 0
0.000021 0.000000 0
0.000014 0.000000 0
0.000005 0.000000 0
-0.000003 0.000000 0
-0.000013 0.000000 0
-0.000021 0.000000 0
-0.000029 0.000000 0
-0.000034 0.000000 0
-0.000036 0.000000 0
-0.000034 0.000000 0
-0.000021 0.000000 0
-0.000002 0.000000 0
0.000007 0.000000 0
0.000008 0.000000 0
0.000008 0.000000 0
0.000007 0.000000 0
0.000007 0.000000 0
0.000006 0.000000 0
0.000006 0.000000 0
0.000005 0.000000 0
0.000004 0.000000 0
0.000003 0.000000 0
0.000002 0.000000 0
0.000001 0.000000 0
-0.000000 0.000000 0
-0.000001 0.000000 0
-0.000002 0.000000 0
-0.000003 0.000000 0
-0.000003 0.000000 0
-0.000004 0.000000 0
-0.000003 0.000000 0
-0.000003 0.000000 0
-0.000002 0.000000 0
-0.000000 0.000000 0
0.000000 0.000000 0
0.000000 0.000003 0
-0.011455 0.007606 0
-0.019476 0.003415 0
-0.022105 -0.000880 0
-0.020784 -0.004748 0
-0.015563 -0.009177 0
-0.006388 -0.013336 0
0.006524 -0.016124 0
0.022824 -0.017633 0
0.041217 -0.017765 0
0.060371 -0.016106 0
0.078747 -0.012890 0
0.094733 -0.008569 0
0.106955 -0.003848 0
0.114446 0.000430 0
0.116811 0.003706 0
0.114255 0.006082 0
0.107906 0.007905 0
0.098659 0.009375 0
0.087227 0.010580 0
0.074230 0.011513 0
0.060259 0.012103 0
0.045921 0.012243 0
0.031834 0.011842 0
0.018601 0.010881 0
0.006745 0.009202 0
-0.003209 0.005708 0
-0.008723 0.001522 0
-0.009881 -0.000676 0
-0.009477 -0.000967 0
-0.009107 -0.000587 0
-0.009068 -0.000165 0
-0.009350 0.000183 0
-0.009902 0.000433 0
-0.010654 0.000583 0
-0.011522 0.000647 0
-0.012416 0.000636 0
-0.013250 0.000564 0
-0.013948 0.000443 0
-0.014445 0.000286 0
-0.014685 0.000098 0
-0.014615 -0.000125 0
-0.014175 -0.000386 0
-0.013318 -0.000678 0
-0.012016 -0.000984 0
-0.010270 -0.001274 0
-0.008128 -0.001503 0
-0.005707 -0.001601 0
-0.003234 -0.001458 0
-0.001098 -0.000904 0
0.000000 -0.000000 0
0.000000 0.000005 0
-0.013930 0.019474 0
-0.024846 0.010648 0
-0.030142 0.001307 0
-0.031310 -0.006542 0
-0.029057 -0.014397 0
-0.023740 -0.022089 0
-0.015042 -0.029213 0
-0.002547 -0.034693 0
0.013362 -0.037547 0
0.032363 -0.037530 0
0.053132 -0.034361 0
0.074146 -0.028207 0
0.093657 -0.019712 0
0.109756 -0.009855 0
0.120656 0.000191 0
0.125144 0.008904 0
0.123079 0.015596 0
0.115662 0.020679 0
0.104162 0.024428 0
0.089839 0.026968 0
0.073885 0.028308 0
0.057361 0.028425 0
0.041154 0.027320 0
0.025967 0.025089 0
0.012334 0.021810 0
0.000472 0.015469 0
-0.008673 0.006672 0
-0.012420 0.000753 0
-0.013399 -0.000774 0
-0.013870 -0.000408 0
-0.014455 0.000243 0
-0.015233 0.000833 0
-0.016208 0.001304 0
-0.017356 0.001620 0
-0.018605 0.001762 0
-0.019859 0.001728 0
-0.021010 0.001532 0
-0.021952 0.001195 0
-0.022584 0.000737 0
-0.022811 0.000170 0
-0.022543 -0.000511 0
-0.021706 -0.001297 0
-0.020253 -0.002159 0
-0.018165 -0.003047 0
-0.015469 -0.003888 0
-0.012255 -0.004563 0
-0.008695 -0.004894 0
-0.005075 -0.004610 0
-0.001866 -0.003234 0
0.000000 -0.000002 0
0.000000 0.000006 0
-0.013807 0.032452 0
-0.025880 0.019626 0
-0.032686 0.005583 0
-0.035818 -0.005833 0
-0.035866 -0.016748 0
-0.033169 -0.027351 0
-0.027713 -0.037317 0
-0.019592 -0.046037 0
-0.008299 -0.052675 0
0.006329 -0.055876 0
0.024079 -0.054671 0
0.043692 -0.049094 0
0.063839 -0.039459 0
0.082700 -0.026570 0
0.098379 -0.011683 0
0.109254 0.003659 0
0.113354 0.017387 0
0.110950 0.028292 0
0.103004 0.036401 0
0.090962 0.041789 0
0.076388 0.044581 0
0.060697 0.044974 0
0.045024 0.043236 0
0.030206 0.039701 0
0.016847 0.034696 0
0.005282 0.026715 0
-0.005561 0.014414 0
-0.011876 0.004049 0
-0.014224 0.000484 0
-0.015318 0.000469 0
-0.016327 0.001197 0
-0.017459 0.001936 0
-0.018743 0.002556 0
-0.020152 0.002979 0
-0.021623 0.003150 0
-0.023060 0.003042 0
-0.024343 0.002657 0
-0.025344 0.002017 0
-0.025940 0.001145 0
-0.026012 0.000057 0
-0.025450 -0.001229 0
-0.024193 -0.002676 0
-0.022219 -0.004219 0
-0.019561 -0.005767 0
-0.016318 -0.007184 0
-0.012653 -0.008277 0
-0.008792 -0.008781 0
-0.005028 -0.008287 0
-0.001798 -0.005980 0
0.000000 -0.000002 0
0.000000 0.000006 0
-0.012530 0.045353 0
-0.025076 0.029526 0
-0.032807 0.011245 0
-0.037248 -0.003363 0
-0.038929 -0.017047 0
-0.038260 -0.030242 0
-0.035242 -0.042789 0
-0.029872 -0.054106 0
-0.022058 -0.063468 0
-0.011696 -0.069907 0
0.001669 -0.071723 0
0.017934 -0.067967 0
0.036001 -0.058722 0
0.054408 -0.044397 0
0.071201 -0.026363 0
0.084518 -0.006071 0
0.092943 0.013900 0
0.094961 0.031028 0
0.091218 0.044416 0
0.083014 0.053583 0
0.071786 0.058573 0
0.058904 0.059788 0
0.045513 0.057811 0
0.032502 0.053266 0
0.020524 0.046734 0
0.009985 0.037877 0
-0.000344 0.023831 0
-0.009432 0.009416 0
-0.013466 0.002667 0
-0.015051 0.001695 0
-0.016200 0.002384 0
-0.017420 0.003249 0
-0.018781 0.003996 0
-0.020262 0.004501 0
-0.021800 0.004670 0
-0.023294 0.004448 0
-0.024606 0.003816 0
-0.025582 0.002792 0
-0.026066 0.001405 0
-0.025916 -0.000320 0
-0.025005 -0.002330 0
-0.023293 -0.004528 0
-0.020818 -0.006790 0
-0.017707 -0.008949 0
-0.014173 -0.010797 0
-0.010475 -0.012088 0
-0.006882 -0.012518 0
-0.003656 -0.011603 0
-0.001146 -0.008262 0
0.000000 0.000000 0
0.000000 0.000006 0
-0.010545 0.057527 0
-0.023136 0.039902 0
-0.031408 0.017754 0
-0.036556 0.000289 0
-0.039415 -0.015736 0
-0.040377 -0.031039 0
-0.039536 -0.045705 0
-0.036863 -0.059220 0
-0.032231 -0.070851 0
-0.025533 -0.079602 0
-0.016645 -0.084301 0
-0.005001 -0.083426 0
0.009163 -0.075934 0
0.025354 -0.061770 0
0.041614 -0.041793 0
0.055986 -0.018084 0
0.067334 0.006944 0
0.072080 0.030017 0
0.071989 0.048348 0
0.068180 0.061221 0
0.061476 0.068690 0
0.052803 0.071248 0
0.043032 0.069639 0
0.032961 0.064690 0
0.023233 0.057212 0
0.014288 0.047582 0
0.005668 0.033831 0
-0.004601 0.017172 0
-0.011206 0.006103 0
-0.013686 0.003203 0
-0.014915 0.003566 0
-0.016032 0.004517 0
-0.017265 0.005398 0
-0.018632 0.005999 0
-0.020083 0.006182 0
-0.021515 0.005847 0
-0.022776 0.004946 0
-0.023676 0.003477 0
-0.024007 0.001478 0
-0.023584 -0.001005 0
-0.022284 -0.003852 0
-0.020118 -0.006863 0
-0.017222 -0.009806 0
-0.013849 -0.012411 0
-0.010321 -0.014415 0
-0.006960 -0.015568 0
-0.004040 -0.015600 0
-0.001754 -0.014023 0
-0.000327 -0.009636 0
0.000000 0.000002 0
0.000000 0.000004 0
-0.008051 0.068488 0
-0.020322 0.050389 0
-0.028933 0.024665 0
-0.034356 0.004643 0
-0.037994 -0.013226 0
-0.040173 -0.030120 0
-0.041153 -0.046302 0
-0.040959 -0.061411 0
-0.039490 -0.074798 0
-0.036533 -0.085493 0
-0.031810 -0.092256 0
-0.025073 -0.093776 0
-0.015866 -0.089077 0
-0.004206 -0.076849 0
0.009301 -0.056997 0
0.023701 -0.031791 0
0.036909 -0.002194 0
0.043829 0.026372 0
0.047316 0.048316 0
0.048255 0.064097 0
0.046678 0.073950 0
0.043031 0.078233 0
0.037760 0.077652 0
0.031475 0.073063 0
0.024732 0.065407 0
0.017970 0.055442 0
0.011179 0.042719 0
0.002433 0.026290 0
-0.006658 0.011752 0
-0.011020 0.005404 0
-0.012667 0.004731 0
-0.013668 0.005598 0
-0.014657 0.006596 0
-0.015771 0.007319 0
-0.016995 0.007553 0
-0.018240 0.007140 0
-0.019348 0.005976 0
-0.020095 0.004022 0
-0.020220 0.001314 0
-0.019478 -0.002042 0
-0.017799 -0.005795 0
-0.015293 -0.009590 0
-0.012218 -0.013060 0
-0.008914 -0.015850 0
-0.005757 -0.017685 0
-0.003058 -0.018370 0
-0.001053 -0.017725 0
0.000130 -0.015316 0
0.000426 -0.010015 0
0.000000 0.000004 0
0.000000 0.000003 0
-0.005224 0.077848 0
-0.016783 0.060783 0
-0.025780 0.031788 0
-0.031259 0.009349 0
-0.035314 -0.009918 0
-0.038344 -0.027880 0
-0.040767 -0.044918 0
-0.042707 -0.060883 0
-0.044155 -0.075277 0
-0.044921 -0.087282 0
-0.044622 -0.095762 0
-0.042725 -0.099372 0
-0.038697 -0.096802 0
-0.032355 -0.086938 0
-0.023156 -0.069701 0
-0.011629 -0.045692 0
0.000376 -0.013185 0
0.012300 0.019610 0
0.019793 0.043923 0
0.025497 0.061859 0
0.028851 0.073914 0
0.030367 0.080164 0
0.029951 0.081195 0
0.027951 0.077719 0
0.024734 0.070717 0
0.020669 0.061135 0
0.015925 0.049368 0
0.009663 0.035008 0
0.000903 0.019557 0
-0.006212 0.009212 0
-0.009206 0.006215 0
-0.010377 0.006507 0
-0.011136 0.007500 0
-0.011913 0.008336 0
-0.012782 0.008650 0
-0.013696 0.008200 0
-0.014510 0.006801 0
-0.014992 0.004349 0
-0.014854 0.000861 0
-0.013790 -0.003425 0
-0.011851 -0.008037 0
-0.009279 -0.012445 0
-0.006417 -0.016184 0
-0.003602 -0.018872 0
-0.001167 -0.020271 0
0.000633 -0.020272 0
0.001647 -0.018787 0
0.001783 -0.015503 0
0.001070 -0.009506 0
0.000000 0.000006 0
0.000000 0.000001 0
-0.002308 0.085270 0
-0.012605 0.070944 0
-0.022197 0.039140 0
-0.027759 0.014178 0
-0.031903 -0.006141 0
-0.035511 -0.024667 0
-0.039041 -0.041939 0
-0.042716 -0.058023 0
-0.046650 -0.072585 0
-0.050762 -0.085027 0
-0.054714 -0.094452 0
-0.057882 -0.099701 0
-0.059414 -0.099448 0
-0.058431 -0.092391 0
-0.054156 -0.077723 0
-0.046728 -0.055323 0
-0.036682 -0.026124 0
-0.022125 0.006955 0
-0.009806 0.035120 0
0.000599 0.055039 0
0.009224 0.069079 0
0.015860 0.077133 0
0.020088 0.080069 0
0.022453 0.078280 0
0.023047 0.072689 0
0.022080 0.064250 0
0.019746 0.053724 0
0.015858 0.041314 0
0.009649 0.027629 0
0.001850 0.015513 0
-0.003499 0.008895 0
-0.005842 0.007528 0
-0.006669 0.008131 0
-0.007137 0.008965 0
-0.007567 0.009337 0
-0.008010 0.008868 0
-0.008377 0.007272 0
-0.008465 0.004366 0
-0.007995 0.000112 0
-0.006706 -0.005045 0
-0.004774 -0.010307 0
-0.002535 -0.015024 0
-0.000326 -0.018736 0
0.001598 -0.021101 0
0.003052 -0.021921 0
0.003871 -0.021183 0
0.003941 -0.018874 0
0.003165 -0.014738 0
0.001587 -0.008232 0
0.000000 0.000007 0
0.000000 -0.000000 0
0.000324 0.090452 0
-0.007865 0.080672 0
-0.018237 0.046941 0
-0.024205 0.019055 0
-0.028214 -0.002165 0
-0.032203 -0.020742 0
-0.036580 -0.037713 0
-0.041631 -0.053274 0
-0.047570 -0.067231 0
-0.054436 -0.079219 0
-0.062011 -0.088643 0
-0.069741 -0.094672 0
-0.076700 -0.096253 0
-0.081628 -0.092197 0
-0.083074 -0.081405 0
-0.079841 -0.063167 0
-0.071163 -0.037788 0
-0.057185 -0.007267 0
-0.039591 0.021199 0
-0.025371 0.042829 0
-0.011941 0.058653 0
-0.000427 0.069301 0
0.008649 0.074601 0
0.015263 0.074761 0
0.019645 0.071090 0
0.021988 0.064435 0
0.022387 0.055591 0
0.020981 0.045106 0
0.017425 0.033564 0
0.011675 0.022359 0
0.005335 0.013906 0
0.001118 0.009676 0
-0.000771 0.008796 0
-0.001342 0.009235 0
-0.001405 0.009524 0
-0.001313 0.009010 0
-0.001122 0.007256 0
-0.000704 0.003967 0
0.000173 -0.000898 0
0.001449 -0.006646 0
0.002925 -0.012208 0
0.004381 -0.016893 0
0.005613 -0.020318 0
0.006453 -0.022249 0
0.006822 -0.022545 0
0.006642 -0.021161 0
0.005803 -0.018081 0
0.004205 -0.013148 0
0.001927 -0.006341 0
0.000000 0.000007 0
0.000000 -0.000001 0
0.002344 0.093134 0
-0.002721 0.089505 0
-0.013768 0.055480 0
-0.020779 0.024156 0
-0.024644 0.001857 0
-0.028820 -0.016302 0
-0.033851 -0.032511 0
-0.040004 -0.047033 0
-0.047524 -0.059780 0
-0.056512 -0.070586 0
-0.066852 -0.079148 0
-0.078123 -0.085013 0
-0.089511 -0.087563 0
-0.099741 -0.086017 0
-0.107076 -0.079510 0
-0.109487 -0.067234 0
-0.104959 -0.048780 0
-0.092305 -0.024616 0
-0.072169 0.003306 0
-0.051247 0.027389 0
-0.033953 0.044136 0
-0.018441 0.056542 0
-0.004777 0.064379 0
0.006372 0.067284 0
0.014666 0.065964 0
0.020401 0.061510 0
0.023692 0.054732 0
0.024928 0.046275 0
0.024067 0.036934 0
0.020890 0.027602 0
0.015906 0.019452 0
0.010915 0.013634 0
0.007546 0.010591 0
0.006131 0.009600 0
0.005976 0.009308 0
0.006419 0.008585 0
0.007116 0.006664 0
0.007981 0.003072 0
0.009012 -0.002042 0
0.009929 -0.007797 0
0.010647 -0.013239 0
0.011115 -0.017712 0
0.011239 -0.020808 0
0.010925 -0.022310 0
0.010142 -0.022110 0
0.008890 -0.020164 0
0.007133 -0.016438 0
0.004804 -0.010863 0
0.002030 -0.004027 0
0.000000 0.000007 0
0.000000 -0.000001 0
0.003712 0.093172 0
0.002312 0.096784 0
-0.008529 0.064999 0
-0.017455 0.029930 0
-0.021543 0.005876 0
-0.025652 -0.011534 0
-0.031153 -0.026529 0
-0.038212 -0.039601 0
-0.046996 -0.050724 0
-0.057569 -0.059892 0
-0.069819 -0.067032 0
-0.083415 -0.072013 0
-0.097718 -0.074636 0
-0.111700 -0.074633 0
-0.123863 -0.071659 0
-0.132235 -0.065283 0
-0.134503 -0.054968 0
-0.128439 -0.040057 0
-0.112646 -0.019860 0
-0.087687 0.004615 0
-0.061040 0.025847 0
-0.038112 0.040124 0
-0.019547 0.049789 0
-0.004380 0.055317 0
0.007802 0.057062 0
0.016890 0.055410 0
0.023295 0.051062 0
0.027558 0.044731 0
0.029652 0.037602 0
0.029231 0.030519 0
0.026337 0.023881 0
0.022147 0.018037 0
0.018338 0.013580 0
0.016012 0.010804 0
0.015231 0.009236 0
0.015468 0.007871 0
0.016195 0.005694 0
0.017063 0.002070 0
0.017782 -0.002846 0
0.018122 -0.008282 0
0.018049 -0.013394 0
0.017516 -0.017485 0
0.016460 -0.020128 0
0.014872 -0.021152 0
0.012835 -0.020509 0
0.010465 -0.018152 0
0.007818 -0.013995 0
0.004878 -0.008045 0
0.001830 -0.001537 0
0.000000 0.000005 0
0.000000 -0.000002 0
0.004557 0.090821 0
0.006326 0.101745 0
-0.002142 0.075248 0
-0.013836 0.037170 0
-0.019090 0.010054 0
-0.022875 -0.006692 0
-0.028624 -0.019951 0
-0.036438 -0.031190 0
-0.046265 -0.040424 0
-0.058026 -0.047763 0
-0.071513 -0.053302 0
-0.086376 -0.057115 0
-0.102089 -0.059277 0
-0.117916 -0.059872 0
-0.132859 -0.058974 0
-0.145625 -0.056594 0
-0.154594 -0.052576 0
-0.157834 -0.046473 0
-0.153121 -0.037446 0
-0.138096 -0.024217 0
-0.112068 -0.005439 0
-0.081007 0.015050 0
-0.049235 0.030645 0
-0.021454 0.039936 0
0.000071 0.044695 0
0.014821 0.046016 0
0.022937 0.044064 0
0.029045 0.039918 0
0.033707 0.035260 0
0.035896 0.030917 0
0.035274 0.026538 0
0.032893 0.021633 0
0.030142 0.016725 0
0.027887 0.012707 0
0.026509 0.009852 0
0.025949 0.007620 0
0.025931 0.005069 0
0.026136 0.001485 0
0.026202 -0.003100 0
0.025864 -0.008065 0
0.024930 -0.012633 0
0.023285 -0.016122 0
0.020931 -0.018165 0
0.017987 -0.018685 0
0.014671 -0.017702 0
0.011219 -0.015148 0
0.007782 -0.010851 0
0.004409 -0.004874 0
0.001336 0.000851 0
0.000000 0.000004 0
0.000000 -0.000002 0
0.005005 0.086845 0
0.008952 0.103482 0
0.004632 0.085161 0
-0.008944 0.046878 0
-0.016990 0.014915 0
-0.020575 -0.002000 0
-0.026292 -0.012966 0
-0.034711 -0.021961 0
-0.045401 -0.029137 0
-0.058055 -0.034644 0
-0.072311 -0.038683 0
-0.087736 -0.041437 0
-0.103826 -0.043096 0
-0.120026 -0.043862 0
-0.135738 -0.043950 0
-0.150308 -0.043548 0
-0.162993 -0.042759 0
-0.172876 -0.041531 0
-0.178715 -0.039598 0
-0.178764 -0.036438 0
-0.170590 -0.031241 0
-0.151287 -0.022708 0
-0.122594 -0.009764 0
-0.088651 0.006012 0
-0.053305 0.020787 0
-0.019908 0.032543 0
0.008368 0.036838 0
0.028651 0.033961 0
0.041228 0.030751 0
0.047127 0.028953 0
0.046855 0.026884 0
0.044325 0.023169 0
0.042205 0.018586 0
0.040331 0.014438 0
0.038539 0.011174 0
0.036974 0.008449 0
0.035795 0.005507 0
0.034978 0.001799 0
0.034152 -0.002574 0
0.032911 -0.007009 0
0.030876 -0.010815 0
0.027917 -0.013486 0
0.024156 -0.014829 0
0.019866 -0.014892 0
0.015376 -0.013741 0
0.011001 -0.011264 0
0.006965 -0.007185 0
0.003381 -0.001599 0
0.000708 0.002872 0
0.000000 0.000001 0
0.000000 -0.000002 0
0.005161 0.081869 0
0.010443 0.102117 0
0.009999 0.093144 0
-0.001735 0.058792 0
-0.014475 0.021685 0
-0.018852 0.002610 0
-0.024143 -0.005815 0
-0.032954 -0.012081 0
-0.044332 -0.017080 0
-0.057622 -0.020853 0
-0.072311 -0.023622 0
-0.087886 -0.025601 0
-0.103843 -0.026986 0
-0.119718 -0.027959 0
-0.135109 -0.028692 0
-0.149681 -0.029339 0
-0.163149 -0.030008 0
-0.175237 -0.030751 0
-0.185601 -0.031557 0
-0.193706 -0.032341 0
-0.198711 -0.032915 0
-0.199334 -0.032947 0
-0.193520 -0.031990 0
-0.179017 -0.029353 0
-0.155517 -0.024049 0
-0.124833 -0.015657 0
-0.088876 -0.004496 0
-0.054175 0.007058 0
-0.023110 0.016785 0
0.004152 0.025290 0
0.026914 0.029339 0
0.043165 0.026282 0
0.051301 0.020719 0
0.054436 0.016374 0
0.053547 0.013209 0
0.050188 0.010364 0
0.046358 0.007064 0
0.043395 0.003129 0
0.041000 -0.001033 0
0.038287 -0.004789 0
0.034725 -0.007638 0
0.030281 -0.009402 0
0.025197 -0.010114 0
0.019825 -0.009905 0
0.014512 -0.008837 0
0.009580 -0.006737 0
0.005297 -0.003231 0
0.001859 0.001383 0
0.000080 0.004232 0
0.000000 -0.000001 0
0.000000 -0.000002 0
0.005108 0.076401 0
0.011066 0.098644 0
0.013353 0.097338 0
0.006367 0.071352 0
-0.009913 0.032033 0
-0.017334 0.007668 0
-0.021995 0.001135 0
-0.030820 -0.001772 0
-0.042719 -0.004469 0
-0.056463 -0.006664 0
-0.071350 -0.008419 0
-0.086827 -0.009905 0
-0.102440 -0.011264 0
-0.117804 -0.012596 0
-0.132609 -0.013986 0
-0.146625 -0.015508 0
-0.159709 -0.017203 0
-0.171758 -0.019078 0
-0.182703 -0.021129 0
-0.192442 -0.023328 0
-0.200825 -0.025613 0
-0.207624 -0.027899 0
-0.212435 -0.030080 0
-0.214688 -0.031991 0
-0.213429 -0.033397 0
-0.207243 -0.034097 0
-0.194875 -0.033821 0
-0.175364 -0.031805 0
-0.150041 -0.027576 0
-0.120321 -0.021072 0
-0.087057 -0.012129 0
-0.055011 -0.001217 0
-0.027705 0.007315 0
-0.005560 0.012191 0
0.011784 0.015422 0
0.024503 0.015638 0
0.032617 0.012300 0
0.036352 0.007157 0
0.036650 0.002533 0
0.034618 -0.000734 0
0.030985 -0.002809 0
0.026337 -0.003959 0
0.021159 -0.004373 0
0.015869 -0.004207 0
0.010778 -0.003497 0
0.006148 -0.002048 0
0.002373 0.000537 0
0.000030 0.003618 0
-0.000477 0.004730 0
0.000000 -0.000002 0
0.000000 -0.000002 0
0.004909 0.070802 0
0.011078 0.093871 0
0.015080 0.097842 0
0.012512 0.082058 0
-0.002121 0.045386 0
-0.015284 0.014692 0
-0.020334 0.007671 0
-0.028746 0.008643 0
-0.040628 0.008563 0
-0.054214 0.007778 0
-0.068703 0.006742 0
-0.083588 0.005489 0
-0.098517 0.003991 0
-0.113222 0.002210 0
-0.127499 0.000129 0
-0.141173 -0.002239 0
-0.154084 -0.004875 0
-0.166073 -0.007756 0
-0.176997 -0.010873 0
-0.186807 -0.014219 0
-0.195507 -0.017733 0
-0.203041 -0.021337 0
-0.209281 -0.024926 0
-0.214093 -0.028358 0
-0.217299 -0.031493 0
-0.218691 -0.034212 0
-0.218094 -0.036375 0
-0.215265 -0.037775 0
-0.209512 -0.038257 0
-0.200303 -0.037694 0
-0.187003 -0.035970 0
-0.168950 -0.033069 0
-0.145928 -0.028732 0
-0.121546 -0.023116 0
-0.096696 -0.016854 0
-0.072772 -0.010469 0
-0.051828 -0.004784 0
-0.035489 -0.000904 0
-0.023698 0.000701 0
-0.015575 0.000876 0
-0.010136 0.000642 0
-0.006617 0.000424 0
-0.004443 0.000354 0
-0.003225 0.000476 0
-0.002723 0.000883 0
-0.002750 0.001668 0
-0.002932 0.002887 0
-0.002461 0.004232 0
-0.001148 0.004262 0
0.000000 -0.000003 0
0.000000 -0.000001 0
0.004612 0.065322 0
0.010677 0.088473 0
0.015558 0.095904 0
0.015981 0.088553 0
0.006449 0.059829 0
-0.011143 0.025881 0
-0.018939 0.014598 0
-0.027008 0.018521 0
-0.038485 0.020999 0
-0.051471 0.021411 0
-0.065160 0.020956 0
-0.079127 0.019909 0
-0.093089 0.018371 0
-0.106865 0.016387 0
-0.120327 0.013965 0
-0.133375 0.011078 0
-0.145896 0.007698 0
-0.157786 0.003836 0
-0.168924 -0.000394 0
-0.179207 -0.004818 0
-0.188493 -0.009379 0
-0.196692 -0.014124 0
-0.203811 -0.019028 0
-0.209702 -0.023974 0
-0.214159 -0.028799 0
-0.216979 -0.033302 0
-0.218020 -0.037246 0
-0.217175 -0.040388 0
-0.214360 -0.042538 0
-0.209585 -0.043580 0
-0.202888 -0.043481 0
-0.194365 -0.042293 0
-0.184146 -0.040089 0
-0.172057 -0.037040 0
-0.158229 -0.033352 0
-0.142849 -0.029230 0
-0.126237 -0.024983 0
-0.109053 -0.020974 0
-0.092433 -0.017381 0
-0.077338 -0.014296 0
-0.063969 -0.011768 0
-0.052246 -0.009651 0
-0.041992 -0.007765 0
-0.033060 -0.005927 0
-0.025318 -0.003973 0
-0.018601 -0.001839 0
-0.012714 0.000248 0
-0.007411 0.001834 0
-0.002764 0.002270 0
0.000000 -0.000006 0
0.000000 0.000000 0
0.004253 0.060125 0
0.010010 0.082925 0
0.015180 0.092538 0
0.017386 0.091168 0
0.012406 0.072510 0
-0.004287 0.040079 0
-0.016704 0.023535 0
-0.025017 0.028189 0
-0.036163 0.033027 0
-0.048661 0.034454 0
-0.061657 0.034398 0
-0.074781 0.033419 0
-0.087791 0.031729 0
-0.100537 0.029448 0
-0.112925 0.026640 0
-0.124915 0.023330 0
-0.136506 0.019536 0
-0.147711 0.015272 0
-0.158529 0.010548 0
-0.168857 0.005350 0
-0.178516 -0.000247 0
-0.187355 -0.006018 0
-0.195243 -0.011916 0
-0.202168 -0.018011 0
-0.208023 -0.024216 0
-0.212571 -0.030351 0
-0.215546 -0.036179 0
-0.216672 -0.041435 0