# vtk DataFile Version 2.0
generated by CFD-lab course output (written by Tobias Neckel) 
ASCII

DATASET STRUCTURED_GRID
DIMENSIONS  51 51 1 
POINTS 2601 float

0.000000 0.000000 0
0.020000 0.000000 0
0.040000 0.000000 0
0.060000 0.000000 0
0.080000 0.000000 0
0.100000 0.000000 0
0.120000 0.000000 0
0.140000 0.000000 0
0.160000 0.000000 0
0.180000 0.000000 0
0.200000 0.000000 0
0.220000 0.000000 0
0.240000 0.000000 0
0.260000 0.000000 0
0.280000 0.000000 0
0.300000 0.000000 0
0.320000 0.000000 0
0.340000 0.000000 0
0.360000 0.000000 0
0.380000 0.000000 0
0.400000 0.000000 0
0.420000 0.000000 0
0.440000 0.000000 0
0.460000 0.000000 0
0.480000 0.000000 0
0.500000 0.000000 0
0.520000 0.000000 0
0.540000 0.000000 0
0.560000 0.000000 0
0.580000 0.000000 0
0.600000 0.000000 0
0.620000 0.000000 0
0.640000 0.000000 0
0.660000 0.000000 0
0.680000 0.000000 0
0.700000 0.000000 0
0.720000 0.000000 0
0.740000 0.000000 0
0.760000 0.000000 0
0.780000 0.000000 0
0.800000 0.000000 0
0.820000 0.000000 0
0.840000 0.000000 0
0.860000 0.000000 0
0.880000 0.000000 0
0.900000 0.000000 0
0.920000 0.000000 0
0.940000 0.000000 0
0.960000 0.000000 0
0.980000 0.000000 0
1.000000 0.000000 0
0.000000 0.020000 0
0.020000 0.020000 0
0.040000 0.020000 0
0.060000 0.020000 0
0.080000 0.020000 0
0.100000 0.020000 0
0.120000 0.020000 0
0.140000 0.020000 0
0.160000 0.020000 0
0.180000 0.020000 0
0.200000 0.020000 0
0.220000 0.020000 0
0.240000 0.020000 0
0.260000 0.020000 0
0.280000 0.020000 0
0.300000 0.020000 0
0.320000 0.020000 0
0.340000 0.020000 0
0.360000 0.020000 0
0.380000 0.020000 0
0.400000 0.020000 0
0.420000 0.020000 0
0.440000 0.020000 0
0.460000 0.020000 0
0.480000 0.020000 0
0.500000 0.020000 0
0.520000 0.020000 0
0.540000 0.020000 0
0.560000 0.020000 0
0.580000 0.020000 0
0.600000 0.020000 0
0.620000 0.020000 0
0.640000 0.020000 0
0.660000 0.020000 0
0.680000 0.020000 0
0.700000 0.020000 0
0.720000 0.020000 0
0.740000 0.020000 0
0.760000 0.020000 0
0.780000 0.020000 0
0.800000 0.020000 0
0.820000 0.020000 0
0.840000 0.020000 0
0.860000 0.020000 0
0.880000 0.020000 0
0.900000 0.020000 0
0.920000 0.020000 0
0.940000 0.020000 0
0.960000 0.020000 0
0.980000 0.020000 0
1.000000 0.020000 0
0.000000 0.040000 0
0.020000 0.040000 0
0.040000 0.040000 0
0.060000 0.040000 0
0.080000 0.040000 0
0.100000 0.040000 0
0.120000 0.040000 0
0.140000 0.040000 0
0.160000 0.040000 0
0.180000 0.040000 0
0.200000 0.040000 0
0.220000 0.040000 0
0.240000 0.040000 0
0.260000 0.040000 0
0.280000 0.040000 0
0.300000 0.040000 0
0.320000 0.040000 0
0.340000 0.040000 0
0.360000 0.040000 0
0.380000 0.040000 0
0.400000 0.040000 0
0.420000 0.040000 0
0.440000 0.040000 0
0.460000 0.040000 0
0.480000 0.040000 0
0.500000 0.040000 0
0.520000 0.040000 0
0.540000 0.040000 0
0.560000 0.040000 0
0.580000 0.040000 0
0.600000 0.040000 0
0.620000 0.040000 0
0.640000 0.040000 0
0.660000 0.040000 0
0.680000 0.040000 0
0.700000 0.040000 0
0.720000 0.040000 0
0.740000 0.040000 0
0.760000 0.040000 0
0.780000 0.040000 0
0.800000 0.040000 0
0.820000 0.040000 0
0.840000 0.040000 0
0.860000 0.040000 0
0.880000 0.040000 0
0.900000 0.040000 0
0.920000 0.040000 0
0.940000 0.040000 0
0.960000 0.040000 0
0.980000 0.040000 0
1.000000 0.040000 0
0.000000 0.060000 0
0.020000 0.060000 0
0.040000 0.060000 0
0.060000 0.060000 0
0.080000 0.060000 0
0.100000 0.060000 0
0.120000 0.060000 0
0.140000 0.060000 0
0.160000 0.060000 0
0.180000 0.060000 0
0.200000 0.060000 0
0.220000 0.060000 0
0.240000 0.060000 0
0.260000 0.060000 0
0.280000 0.060000 0
0.300000 0.060000 0
0.320000 0.060000 0
0.340000 0.060000 0
0.360000 0.060000 0
0.380000 0.060000 0
0.400000 0.060000 0
0.420000 0.060000 0
0.440000 0.060000 0
0.460000 0.060000 0
0.480000 0.060000 0
0.500000 0.060000 0
0.520000 0.060000 0
0.540000 0.060000 0
0.560000 0.060000 0
0.580000 0.060000 0
0.600000 0.060000 0
0.620000 0.060000 0
0.640000 0.060000 0
0.660000 0.060000 0
0.680000 0.060000 0
0.700000 0.060000 0
0.720000 0.060000 0
0.740000 0.060000 0
0.760000 0.060000 0
0.780000 0.060000 0
0.800000 0.060000 0
0.820000 0.060000 0
0.840000 0.060000 0
0.860000 0.060000 0
0.880000 0.060000 0
0.900000 0.060000 0
0.920000 0.060000 0
0.940000 0.060000 0
0.960000 0.060000 0
0.980000 0.060000 0
1.000000 0.060000 0
0.000000 0.080000 0
0.020000 0.080000 0
0.040000 0.080000 0
0.060000 0.080000 0
0.080000 0.080000 0
0.100000 0.080000 0
0.120000 0.080000 0
0.140000 0.080000 0
0.160000 0.080000 0
0.180000 0.080000 0
0.200000 0.080000 0
0.220000 0.080000 0
0.240000 0.080000 0
0.260000 0.080000 0
0.280000 0.080000 0
0.300000 0.080000 0
0.320000 0.080000 0
0.340000 0.080000 0
0.360000 0.080000 0
0.380000 0.080000 0
0.400000 0.080000 0
0.420000 0.080000 0
0.440000 0.080000 0
0.460000 0.080000 0
0.480000 0.080000 0
0.500000 0.080000 0
0.520000 0.080000 0
0.540000 0.080000 0
0.560000 0.080000 0
0.580000 0.080000 0
0.600000 0.080000 0
0.620000 0.080000 0
0.640000 0.080000 0
0.660000 0.080000 0
0.680000 0.080000 0
0.700000 0.080000 0
0.720000 0.080000 0
0.740000 0.080000 0
0.760000 0.080000 0
0.780000 0.080000 0
0.800000 0.080000 0
0.820000 0.080000 0
0.840000 0.080000 0
0.860000 0.080000 0
0.880000 0.080000 0
0.900000 0.080000 0
0.920000 0.080000 0
0.940000 0.080000 0
0.960000 0.080000 0
0.980000 0.080000 0
1.000000 0.080000 0
0.000000 0.100000 0
0.020000 0.100000 0
0.040000 0.100000 0
0.060000 0.100000 0
0.080000 0.100000 0
0.100000 0.100000 0
0.120000 0.100000 0
0.140000 0.100000 0
0.160000 0.100000 0
0.180000 0.100000 0
0.200000 0.100000 0
0.220000 0.100000 0
0.240000 0.100000 0
0.260000 0.100000 0
0.280000 0.100000 0
0.300000 0.100000 0
0.320000 0.100000 0
0.340000 0.100000 0
0.360000 0.100000 0
0.380000 0.100000 0
0.400000 0.100000 0
0.420000 0.100000 0
0.440000 0.100000 0
0.460000 0.100000 0
0.480000 0.100000 0
0.500000 0.100000 0
0.520000 0.100000 0
0.540000 0.100000 0
0.560000 0.100000 0
0.580000 0.100000 0
0.600000 0.100000 0
0.620000 0.100000 0
0.640000 0.100000 0
0.660000 0.100000 0
0.680000 0.100000 0
0.700000 0.100000 0
0.720000 0.100000 0
0.740000 0.100000 0
0.760000 0.100000 0
0.780000 0.100000 0
0.800000 0.100000 0
0.820000 0.100000 0
0.840000 0.100000 0
0.860000 0.100000 0
0.880000 0.100000 0
0.900000 0.100000 0
0.920000 0.100000 0
0.940000 0.100000 0
0.960000 0.100000 0
0.980000 0.100000 0
1.000000 0.100000 0
0.000000 0.120000 0
0.020000 0.120000 0
0.040000 0.120000 0
0.060000 0.120000 0
0.080000 0.120000 0
0.100000 0.120000 0
0.120000 0.120000 0
0.140000 0.120000 0
0.160000 0.120000 0
0.180000 0.120000 0
0.200000 0.120000 0
0.220000 0.120000 0
0.240000 0.120000 0
0.260000 0.120000 0
0.280000 0.120000 0
0.300000 0.120000 0
0.320000 0.120000 0
0.340000 0.120000 0
0.360000 0.120000 0
0.380000 0.120000 0
0.400000 0.120000 0
0.420000 0.120000 0
0.440000 0.120000 0
0.460000 0.120000 0
0.480000 0.120000 0
0.500000 0.120000 0
0.520000 0.120000 0
0.540000 0.120000 0
0.560000 0.120000 0
0.580000 0.120000 0
0.600000 0.120000 0
0.620000 0.120000 0
0.640000 0.120000 0
0.660000 0.120000 0
0.680000 0.120000 0
0.700000 0.120000 0
0.720000 0.120000 0
0.740000 0.120000 0
0.760000 0.120000 0
0.780000 0.120000 0
0.800000 0.120000 0
0.820000 0.120000 0
0.840000 0.120000 0
0.860000 0.120000 0
0.880000 0.120000 0
0.900000 0.120000 0
0.920000 0.120000 0
0.940000 0.120000 0
0.960000 0.120000 0
0.980000 0.120000 0
1.000000 0.120000 0
0.000000 0.140000 0
0.020000 0.140000 0
0.040000 0.140000 0
0.060000 0.140000 0
0.080000 0.140000 0
0.100000 0.140000 0
0.120000 0.140000 0
0.140000 0.140000 0
0.160000 0.140000 0
0.180000 0.140000 0
0.200000 0.140000 0
0.220000 0.140000 0
0.240000 0.140000 0
0.260000 0.140000 0
0.280000 0.140000 0
0.300000 0.140000 0
0.320000 0.140000 0
0.340000 0.140000 0
0.360000 0.140000 0
0.380000 0.140000 0
0.400000 0.140000 0
0.420000 0.140000 0
0.440000 0.140000 0
0.460000 0.140000 0
0.480000 0.140000 0
0.500000 0.140000 0
0.520000 0.140000 0
0.540000 0.140000 0
0.560000 0.140000 0
0.580000 0.140000 0
0.600000 0.140000 0
0.620000 0.140000 0
0.640000 0.140000 0
0.660000 0.140000 0
0.680000 0.140000 0
0.700000 0.140000 0
0.720000 0.140000 0
0.740000 0.140000 0
0.760000 0.140000 0
0.780000 0.140000 0
0.800000 0.140000 0
0.820000 0.140000 0
0.840000 0.140000 0
0.860000 0.140000 0
0.880000 0.140000 0
0.900000 0.140000 0
0.920000 0.140000 0
0.940000 0.140000 0
0.960000 0.140000 0
0.980000 0.140000 0
1.000000 0.140000 0
0.000000 0.160000 0
0.020000 0.160000 0
0.040000 0.160000 0
0.060000 0.160000 0
0.080000 0.160000 0
0.100000 0.160000 0
0.120000 0.160000 0
0.140000 0.160000 0
0.160000 0.160000 0
0.180000 0.160000 0
0.200000 0.160000 0
0.220000 0.160000 0
0.240000 0.160000 0
0.260000 0.160000 0
0.280000 0.160000 0
0.300000 0.160000 0
0.320000 0.160000 0
0.340000 0.160000 0
0.360000 0.160000 0
0.380000 0.160000 0
0.400000 0.160000 0
0.420000 0.160000 0
0.440000 0.160000 0
0.460000 0.160000 0
0.480000 0.160000 0
0.500000 0.160000 0
0.520000 0.160000 0
0.540000 0.160000 0
0.560000 0.160000 0
0.580000 0.160000 0
0.600000 0.160000 0
0.620000 0.160000 0
0.640000 0.160000 0
0.660000 0.160000 0
0.680000 0.160000 0
0.700000 0.160000 0
0.720000 0.160000 0
0.740000 0.160000 0
0.760000 0.160000 0
0.780000 0.160000 0
0.800000 0.160000 0
0.820000 0.160000 0
0.840000 0.160000 0
0.860000 0.160000 0
0.880000 0.160000 0
0.900000 0.160000 0
0.920000 0.160000 0
0.940000 0.160000 0
0.960000 0.160000 0
0.980000 0.160000 0
1.000000 0.160000 0
0.000000 0.180000 0
0.020000 0.180000 0
0.040000 0.180000 0
0.060000 0.180000 0
0.080000 0.180000 0
0.100000 0.180000 0
0.120000 0.180000 0
0.140000 0.180000 0
0.160000 0.180000 0
0.180000 0.180000 0
0.200000 0.180000 0
0.220000 0.180000 0
0.240000 0.180000 0
0.260000 0.180000 0
0.280000 0.180000 0
0.300000 0.180000 0
0.320000 0.180000 0
0.340000 0.180000 0
0.360000 0.180000 0
0.380000 0.180000 0
0.400000 0.180000 0
0.420000 0.180000 0
0.440000 0.180000 0
0.460000 0.180000 0
0.480000 0.180000 0
0.500000 0.180000 0
0.520000 0.180000 0
0.540000 0.180000 0
0.560000 0.180000 0
0.580000 0.180000 0
0.600000 0.180000 0
0.620000 0.180000 0
[...]
POINT_DATA 2601 

VECTORS velocity float
0.000000 0.000000 0
-0.000000 0.000000 0
-0.000001 0.000000 0
-0.000002 0.000000 0
-0.000003 0.000000 0
-0.000003 0.000000 0
-0.000003 0.000000 0
-0.000003 0.000000 0
-0.000003 0.000000 0
-0.000002 0.000000 0
-0.000001 0.000000 0
0.000001 0.000000 0
0.000004 0.000000 0
0.000007 0.000000 0
0.000011 0.000000 0
0.000015 0.000000 0
0.000020 0.000000 0
0.000025 0.000000 0
0.000030 0.000000 0
0.000035 0.000000 0
0.000039 0.000000 0
0.000043 0.000000 0
0.000047 0.000000 0
0.000049 0.000000 0
0.000051 0.000000 0
0.000053 0.000000 0
0.000053 0.000000 0
0.000053 0.000000 0
0.000053 0.000000 0
0.000052 0.000000 0
0.000050 0.000000 0
0.000048 0.000000 0
0.000045 0.000000 0
0.000042 0.000000 0
0.000039 0.000000 0
0.000036 0.000000 0
0.000032 0.000000 0
0.000029 0.000000 0
0.000025 0.000000 0
0.000022 0.000000 0
0.000018 0.000000 0
0.000015 0.000000 0
0.000012 0.000000 0
0.000010 0.000000 0
0.000008 0.000000 0
0.000006 0.000000 0
0.000004 0.000000 0
0.000002 0.000000 0
0.000001 0.000000 0
-0.000000 0.000000 0
0.000000 0.000000 0
0.000000 0.000000 0
-0.000155 0.000152 0
-0.000450 0.000225 0
-0.000797 0.000245 0
-0.001146 0.000237 0
-0.001478 0.000215 0
-0.001779 0.000185 0
-0.002042 0.000148 0
-0.002257 0.000103 0
-0.002414 0.000050 0
-0.002503 -0.000011 0
-0.002514 -0.000080 0
-0.002438 -0.000156 0
-0.002267 -0.000236 0
-0.001997 -0.000318 0
-0.001624 -0.000399 0
-0.001154 -0.000475 0
-0.000592 -0.000541 0
0.000050 -0.000595 0
0.000755 -0.000633 0
0.001507 -0.000653 0
0.002284 -0.000658 0
0.003067 -0.000647 0
0.003837 -0.000621 0
0.004579 -0.000582 0
0.005276 -0.000532 0
0.005915 -0.000472 0
0.006485 -0.000404 0
0.006978 -0.000331 0
0.007385 -0.000253 0
0.007702 -0.000173 0
0.007925 -0.000092 0
0.008053 -0.000012 0
0.008086 0.000067 0
0.008025 0.000142 0
0.007875 0.000212 0
0.007641 0.000278 0
0.007328 0.000336 0
0.006946 0.000388 0
0.006503 0.000432 0
0.006008 0.000467 0
0.005469 0.000496 0
0.004896 0.000517 0
0.004298 0.000532 0
0.003680 0.000541 0
0.003050 0.000547 0
0.002411 0.000551 0
0.001763 0.000556 0
0.001104 0.000552 0
0.000452 0.000454 0
0.000000 -0.000000 0
0.000000 0.000001 0
-0.000238 0.000448 0
-0.000663 0.000639 0
-0.001155 0.000694 0
-0.001655 0.000679 0
-0.002136 0.000631 0
-0.002582 0.000563 0
-0.002984 0.000476 0
-0.003330 0.000370 0
-0.003608 0.000244 0
-0.003806 0.000098 0
-0.003910 -0.000067 0
-0.003907 -0.000249 0
-0.003788 -0.000443 0
-0.003545 -0.000644 0
-0.003173 -0.000844 0
-0.002675 -0.001034 0
-0.002057 -0.001205 0
-0.001333 -0.001348 0
-0.000520 -0.001458 0
0.000362 -0.001529 0
0.001288 -0.001561 0
0.002233 -0.001554 0
0.003175 -0.001513 0
0.004092 -0.001439 0
0.004966 -0.001336 0
0.005780 -0.001210 0
0.006519 -0.001063 0
0.007171 -0.000900 0
0.007726 -0.000724 0
0.008178 -0.000540 0
0.008521 -0.000350 0
0.008751 -0.000160 0
0.008868 0.000029 0
0.008873 0.000212 0
0.008768 0.000386 0
0.008561 0.000548 0
0.008257 0.000695 0
0.007866 0.000826 0
0.007398 0.000940 0
0.006863 0.001035 0
0.006273 0.001112 0
0.005637 0.001172 0
0.004967 0.001217 0
0.004270 0.001248 0
0.003553 0.001270 0
0.002822 0.001288 0
0.002077 0.001308 0
0.001313 0.001311 0
0.000550 0.001104 0
0.000000 0.000001 0
0.000000 0.000002 0
-0.000278 0.000813 0
-0.000769 0.001142 0
-0.001332 0.001236 0
-0.001904 0.001216 0
-0.002457 0.001142 0
-0.002977 0.001033 0
-0.003452 0.000895 0
-0.003871 0.000726 0
-0.004221 0.000524 0
-0.004488 0.000289 0
-0.004658 0.000020 0
-0.004715 -0.000278 0
-0.004646 -0.000599 0
-0.004440 -0.000934 0
-0.004091 -0.001270 0
-0.003598 -0.001592 0
-0.002967 -0.001884 0
-0.002213 -0.002133 0
-0.001354 -0.002328 0
-0.000417 -0.002461 0
0.000574 -0.002530 0
0.001591 -0.002534 0
0.002606 -0.002481 0
0.003595 -0.002373 0
0.004539 -0.002219 0
0.005418 -0.002024 0
0.006218 -0.001795 0
0.006926 -0.001538 0
0.007531 -0.001260 0
0.008026 -0.000967 0
0.008405 -0.000664 0
0.008666 -0.000358 0
0.008808 -0.000054 0
0.008832 0.000242 0
0.008742 0.000525 0
0.008544 0.000789 0
0.008246 0.001031 0
0.007858 0.001247 0
0.007391 0.001435 0
0.006855 0.001593 0
0.006263 0.001722 0
0.005627 0.001824 0
0.004956 0.001900 0
0.004259 0.001955 0
0.003545 0.001995 0
0.002817 0.002027 0
0.002076 0.002065 0
0.001315 0.002079 0
0.000552 0.001767 0
0.000000 0.000002 0
0.000000 0.000003 0
-0.000301 0.001215 0
-0.000829 0.001692 0
-0.001434 0.001828 0
-0.002048 0.001804 0
-0.002646 0.001704 0
-0.003212 0.001557 0
-0.003736 0.001369 0
-0.004207 0.001138 0
-0.004610 0.000861 0
-0.004931 0.000534 0
-0.005155 0.000159 0
-0.005262 -0.000262 0
-0.005237 -0.000719 0
-0.005062 -0.001200 0
-0.004729 -0.001688 0
-0.004233 -0.002159 0
-0.003578 -0.002591 0
-0.002778 -0.002962 0
-0.001857 -0.003255 0
-0.000842 -0.003458 0
0.000232 -0.003568 0
0.001335 -0.003586 0
0.002434 -0.003517 0
0.003503 -0.003372 0
0.004518 -0.003159 0
0.005459 -0.002889 0
0.006311 -0.002570 0
0.007060 -0.002212 0
0.007696 -0.001823 0
0.008211 -0.001413 0
0.008601 -0.000990 0
0.008864 -0.000562 0
0.008999 -0.000136 0
0.009008 0.000278 0
0.008898 0.000674 0
0.008676 0.001044 0
0.008351 0.001381 0
0.007935 0.001682 0
0.007440 0.001943 0
0.006879 0.002162 0
0.006265 0.002341 0
0.005611 0.002480 0
0.004927 0.002585 0
0.004224 0.002659 0
0.003507 0.002713 0
0.002782 0.002757 0
0.002046 0.002810 0
0.001294 0.002835 0
0.000542 0.002419 0
0.000000 0.000003 0
0.000000 0.000004 0
-0.000318 0.001640 0
-0.000875 0.002274 0
-0.001511 0.002454 0
-0.002160 0.002428 0
-0.002794 0.002305 0
-0.003401 0.002123 0
-0.003969 0.001889 0
-0.004489 0.001599 0
-0.004946 0.001249 0
-0.005326 0.000833 0
-0.005609 0.000350 0
-0.005776 -0.000197 0
-0.005803 -0.000800 0
-0.005670 -0.001442 0
-0.005359 -0.002101 0
-0.004860 -0.002744 0
-0.004174 -0.003339 0
-0.003313 -0.003855 0
-0.002305 -0.004264 0
-0.001185 -0.004550 0
0.000007 -0.004707 0
0.001230 -0.004736 0
0.002446 -0.004649 0
0.003623 -0.004457 0
0.004733 -0.004175 0
0.005755 -0.003816 0
0.006673 -0.003395 0
0.007472 -0.002922 0
0.008143 -0.002411 0
0.008678 -0.001872 0
0.009074 -0.001316 0
0.009329 -0.000755 0
0.009444 -0.000198 0
0.009423 0.000343 0
0.009273 0.000858 0
0.009005 0.001337 0
0.008630 0.001773 0
0.008162 0.002159 0
0.007616 0.002491 0
0.007008 0.002768 0
0.006352 0.002990 0
0.005663 0.003162 0
0.004951 0.003288 0
0.004227 0.003376 0
0.003497 0.003437 0
0.002764 0.003488 0
0.002027 0.003552 0
0.001278 0.003584 0
0.000532 0.003062 0
0.000000 0.000004 0
0.000000 0.000005 0
-0.000335 0.002087 0
-0.000918 0.002884 0
-0.001585 0.003112 0
-0.002267 0.003086 0
-0.002938 0.002944 0
-0.003587 0.002732 0
-0.004204 0.002457 0
-0.004779 0.002114 0
-0.005299 0.001697 0
-0.005749 0.001196 0
-0.006108 0.000608 0
-0.006352 -0.000069 0
-0.006454 -0.000826 0
-0.006383 -0.001646 0
-0.006112 -0.002499 0
-0.005622 -0.003345 0
-0.004905 -0.004138 0
-0.003971 -0.004831 0
-0.002852 -0.005383 0
-0.001590 -0.005771 0
-0.000239 -0.005983 0
0.001149 -0.006024 0
0.002523 -0.005909 0
0.003845 -0.005658 0
0.005082 -0.005291 0
0.006211 -0.004828 0
0.007215 -0.004286 0
0.008079 -0.003681 0
0.008793 -0.003029 0
0.009351 -0.002344 0
0.009751 -0.001640 0
0.009991 -0.000930 0
0.010076 -0.000229 0
0.010010 0.000450 0
0.009805 0.001093 0
0.009472 0.001688 0
0.009028 0.002225 0
0.008489 0.002697 0
0.007874 0.003098 0
0.007201 0.003427 0
0.006488 0.003686 0
0.005750 0.003882 0
0.005000 0.004021 0
0.004247 0.004114 0
0.003497 0.004176 0
0.002753 0.004227 0
0.002011 0.004297 0
0.001262 0.004330 0
0.000521 0.003698 0
0.000000 0.000004 0
0.000000 0.000007 0
-0.000352 0.002556 0
-0.000963 0.003523 0
-0.001661 0.003802 0
-0.002378 0.003780 0
-0.003089 0.003624 0
-0.003784 0.003388 0
-0.004455 0.003080 0
-0.005093 0.002694 0
-0.005687 0.002218 0
-0.006222 0.001641 0
-0.006676 0.000953 0
-0.007023 0.000148 0
-0.007227 -0.000770 0
-0.007250 -0.001785 0
-0.007050 -0.002863 0
-0.006592 -0.003953 0
-0.005854 -0.004990 0
-0.004841 -0.005908 0
-0.003584 -0.006645 0
-0.002137 -0.007163 0
-0.000572 -0.007446 0
0.001039 -0.007498 0
0.002628 -0.007344 0
0.004144 -0.007015 0
0.005549 -0.006541 0
0.006818 -0.005948 0
0.007930 -0.005261 0
0.008873 -0.004499 0
0.009639 -0.003683 0
0.010222 -0.002829 0
0.010621 -0.001955 0
0.010837 -0.001078 0
0.010877 -0.000216 0
0.010749 0.000615 0
0.010468 0.001397 0
0.010050 0.002115 0
0.009514 0.002757 0
0.008883 0.003314 0
0.008179 0.003780 0
0.007426 0.004154 0
0.006643 0.004441 0
0.005846 0.004650 0
0.005051 0.004791 0
0.004264 0.004879 0
0.003492 0.004931 0
0.002735 0.004975 0
0.001988 0.005044 0
0.001240 0.005074 0
0.000506 0.004324 0
0.000000 0.000005 0
0.000000 0.000008 0
-0.000371 0.003048 0
-0.001010 0.004192 0
-0.001741 0.004527 0
-0.002495 0.004513 0
-0.003248 0.004349 0
-0.003992 0.004096 0
-0.004722 0.003765 0
-0.005430 0.003346 0
-0.006108 0.002825 0
-0.006742 0.002184 0
-0.007312 0.001408 0
-0.007788 0.000482 0
-0.008132 -0.000599 0
-0.008291 -0.001824 0
-0.008208 -0.003158 0
-0.007822 -0.004542 0
-0.007092 -0.005889 0
-0.006004 -0.007101 0
-0.004584 -0.008087 0
-0.002901 -0.008782 0
-0.001050 -0.009159 0
0.000866 -0.009223 0
0.002748 -0.009013 0
0.004527 -0.008579 0
0.006155 -0.007964 0
0.007603 -0.007207 0
0.008851 -0.006340 0
0.009890 -0.005389 0
0.010713 -0.004376 0
0.011318 -0.003324 0
0.011706 -0.002253 0
0.011882 -0.001185 0
0.011857 -0.000140 0
0.011643 0.000859 0
0.011259 0.001793 0
0.010727 0.002643 0
0.010073 0.003393 0
0.009326 0.004032 0
0.008513 0.004555 0
0.007661 0.004964 0
0.006794 0.005266 0
0.005930 0.005474 0
0.005084 0.005603 0
0.004262 0.005673 0
0.003468 0.005705 0
0.002701 0.005731 0
0.001952 0.005792 0
0.001209 0.005813 0
0.000486 0.004938 0
0.000000 0.000004 0
0.000000 0.000010 0
-0.000389 0.003564 0
-0.001057 0.004892 0
-0.001822 0.005287 0
-0.002614 0.005287 0
-0.003411 0.005121 0
-0.004206 0.004861 0
-0.004997 0.004517 0
-0.005781 0.004079 0
-0.006550 0.003529 0
-0.007295 0.002843 0
-0.007999 0.001998 0
-0.008634 0.000967 0
-0.009157 -0.000268 0
-0.009507 -0.001710 0
-0.009604 -0.003332 0
-0.009361 -0.005068 0
-0.008695 -0.006809 0
-0.007560 -0.008416 0
-0.005967 -0.009748 0
-0.003992 -0.010697 0
-0.001761 -0.011211 0
0.000575 -0.011295 0
0.002869 -0.011005 0
0.005012 -0.010421 0
0.006940 -0.009615 0
0.008620 -0.008643 0
0.010038 -0.007547 0
0.011188 -0.006359 0
0.012070 -0.005109 0
0.012687 -0.003820 0
0.013046 -0.002518 0
0.013157 -0.001228 0
0.013035 0.000025 0
0.012701 0.001213 0
0.012179 0.002313 0
0.011498 0.003301 0
0.010694 0.004159 0
0.009800 0.004875 0
0.008853 0.005445 0
0.007885 0.005873 0
0.006922 0.006172 0
0.005984 0.006360 0
0.005083 0.006460 0
0.004227 0.006495 0
0.003414 0.006493 0
0.002641 0.006491 0
0.001897 0.006535 0
0.001165 0.006540 0
0.000460 0.005534 0
0.000000 0.000004 0
0.000000 0.000011 0
-0.000407 0.004104 0
-0.001103 0.005624 0
-0.001901 0.006083 0
-0.002730 0.006102 0
-0.003571 0.005941 0
-0.004418 0.005682 0
-0.005271 0.005338 0
-0.006131 0.004897 0
-0.006996 0.004338 0
-0.007860 0.003632 0
-0.008712 0.002746 0
-0.009531 0.001639 0
-0.010275 0.000273 0
-0.010878 -0.001377 0
-0.011242 -0.003305 0
-0.011241 -0.005452 0
-0.010742 -0.007689 0
-0.009640 -0.009829 0
-0.007902 -0.011655 0
-0.005595 -0.012988 0
-0.002875 -0.013724 0
0.000042 -0.013852 0
0.002932 -0.013450 0
0.005603 -0.012648 0
0.007954 -0.011570 0
0.009947 -0.010303 0
0.011577 -0.008906 0
0.012851 -0.007419 0
0.013785 -0.005873 0
0.014393 -0.004298 0
0.014690 -0.002722 0
0.014697 -0.001174 0
0.014435 0.000316 0
0.013934 0.001716 0
0.013226 0.002996 0
0.012353 0.004128 0
0.011357 0.005091 0
0.010283 0.005872 0
0.009176 0.006470 0
0.008072 0.006896 0
0.007002 0.007167 0
0.005986 0.007312 0
0.005033 0.007360 0
0.004146 0.007342 0
0.003321 0.007290 0
0.002550 0.007249 0
0.001817 0.007268 0
0.001104 0.007249 0
0.000427 0.006103 0
0.000000 0.000003 0
0.000000 0.000013 0
-0.000423 0.004666 0
-0.001146 0.006386 0
-0.001975 0.006914 0
-0.002841 0.006957 0
-0.003723 0.006808 0
-0.004619 0.006560 0
-0.005532 0.006229 0
-0.006467 0.005802 0
-0.007425 0.005256 0
-0.008410 0.004559 0
-0.009418 0.003668 0
-0.010437 0.002529 0
-0.011437 0.001078 0
-0.012356 -0.000744 0
-0.013086 -0.002970 0
-0.013465 -0.005568 0
-0.013296 -0.008410 0
-0.012386 -0.011255 0
-0.010617 -0.013793 0
-0.008003 -0.015724 0
-0.004711 -0.016846 0
-0.001022 -0.017101 0
0.002738 -0.016564 0
0.006220 -0.015441 0
0.009220 -0.013957 0
0.011670 -0.012263 0
0.013581 -0.010448 0
0.014996 -0.008566 0
0.015962 -0.006649 0
0.016518 -0.004725 0
0.016700 -0.002822 0
0.016542 -0.000973 0
0.016077 0.000788 0
0.015345 0.002422 0
0.014392 0.003893 0
0.013269 0.005170 0
0.012034 0.006228 0
0.010742 0.007056 0
0.009447 0.007655 0
0.008192 0.008046 0
0.007009 0.008258 0
0.005914 0.008330 0
0.004913 0.008299 0
0.004005 0.008206 0
0.003178 0.008089 0
0.002418 0.007995 0
0.001708 0.007981 0
0.001025 0.007930 0
0.000385 0.006638 0
0.000000 0.000002 0
0.000000 0.000015 0
-0.000437 0.005248 0
-0.001184 0.007176 0
-0.002042 0.007777 0
-0.002940 0.007848 0
-0.003860 0.007718 0
-0.004801 0.007491 0
-0.005770 0.007185 0
-0.006773 0.006789 0
-0.007820 0.006280 0
-0.008919 0.005624 0
-0.010078 0.004772 0
-0.011300 0.003657 0
-0.012574 0.002192 0
-0.013857 0.000271 0
-0.015050 -0.002197 0
-0.015970 -0.005241 0
-0.016354 -0.008768 0
-0.015900 -0.012507 0
-0.014354 -0.016037 0
-0.011620 -0.018892 0
-0.007806 -0.020705 0
-0.003218 -0.021301 0
0.001717 -0.020689 0
0.006469 -0.019128 0
0.010555 -0.017018 0
0.013778 -0.014662 0
0.016141 -0.012230 0
0.017746 -0.009798 0
0.018717 -0.007395 0
0.019156 -0.005038 0
0.019140 -0.002747 0
0.018728 -0.000551 0
0.017973 0.001513 0
0.016927 0.003401 0
0.015651 0.005071 0
0.014211 0.006486 0
0.012681 0.007618 0
0.011131 0.008459 0
0.009623 0.009020 0
0.008206 0.009334 0
0.006909 0.009446 0
0.005743 0.009407 0
0.004707 0.009269 0
0.003790 0.009077 0
0.002975 0.008876 0
0.002241 0.008718 0
0.001567 0.008661 0
0.000926 0.008572 0
0.000334 0.007128 0
0.000000 -0.000000 0
0.000000 0.000016 0
-0.000448 0.005849 0
-0.001216 0.007991 0
-0.002100 0.008669 0
-0.003026 0.008774 0
-0.003979 0.008668 0
-0.004959 0.008469 0
-0.005975 0.008200 0
-0.007037 0.007851 0
-0.008160 0.007401 0
-0.009360 0.006817 0
-0.010655 0.006049 0
-0.012065 0.005024 0
-0.013605 0.003635 0
-0.015266 0.001732 0
-0.016988 -0.000857 0
-0.018597 -0.004263 0
-0.019787 -0.008479 0
-0.020143 -0.013254 0
-0.019247 -0.018072 0
-0.016822 -0.022271 0
-0.012839 -0.025246 0
-0.007532 -0.026622 0
-0.001346 -0.026249 0
0.005154 -0.024276 0
0.011060 -0.021264 0
0.015754 -0.017847 0
0.019059 -0.014415 0
0.021093 -0.011142 0
0.022115 -0.008059 0
0.022375 -0.005148 0
0.022055 -0.002395 0
0.021274 0.000194 0
0.020115 0.002588 0
0.018650 0.004743 0
0.016956 0.006609 0
0.015121 0.008140 0
0.013237 0.009309 0
0.011390 0.010113 0
0.009652 0.010580 0
0.008070 0.010761 0
0.006668 0.010722 0
0.005447 0.010531 0
0.004394 0.010252 0
0.003488 0.009938 0
0.002704 0.009637 0
0.002013 0.009403 0
0.001389 0.009296 0
0.000804 0.009163 0
0.000275 0.007564 0
0.000000 -0.000002 0
0.000000 0.000018 0
-0.000456 0.006463 0
-0.001241 0.008827 0
-0.002145 0.009586 0
-0.003095 0.009727 0
-0.004074 0.009650 0
-0.005086 0.009487 0
-0.006140 0.009263 0
-0.007249 0.008974 0
-0.008433 0.008602 0
-0.009713 0.008118 0
-0.011118 0.007477 0
-0.012683 0.006607 0
-0.014450 0.005393 0
-0.016455 0.003655 0
-0.018702 0.001135 0
-0.021084 -0.002442 0
-0.023292 -0.007221 0
-0.024829 -0.013045 0
-0.025112 -0.019358 0
-0.023655 -0.025299 0
-0.020234 -0.029992 0
-0.014914 -0.032791 0
-0.008011 -0.033373 0
0.000001 -0.031531 0
0.008379 -0.027617 0
0.015678 -0.022661 0
0.021102 -0.017569 0
0.024414 -0.012854 0
0.025907 -0.008678 0
0.026094 -0.004979 0
0.025413 -0.001646 0
0.024149 0.001389 0
0.022457 0.004136 0
0.020449 0.006559 0
0.018230 0.008599 0
0.015915 0.010205 0
0.013619 0.011349 0
0.011445 0.012043 0
0.009470 0.012340 0
0.007736 0.012318 0
0.006252 0.012069 0
0.005003 0.011680 0
0.003961 0.011227 0
0.003091 0.010768 0
0.002359 0.010351 0
0.001731 0.010033 0
0.001174 0.009871 0
0.000659 0.009687 0
0.000206 0.007932 0
0.000000 -0.000005 0
0.000000 0.000019 0
-0.000461 0.007088 0
-0.001257 0.009679 0
-0.002177 0.010523 0
-0.003144 0.010702 0
-0.004144 0.010658 0
-0.005178 0.010534 0
-0.006259 0.010363 0
-0.007402 0.010144 0
-0.008628 0.009864 0
-0.009964 0.009501 0
-0.011444 0.009019 0
-0.013118 0.008357 0
-0.015048 0.007408 0
-0.017314 0.005984 0
-0.019995 0.003773 0
-0.023100 0.000328 0
-0.026421 -0.004733 0
-0.029399 -0.011433 0
-0.031326 -0.019245 0
-0.031524 -0.027147 0
-0.029574 -0.033985 0
-0.025351 -0.038842 0
-0.018950 -0.041162 0
-0.010651 -0.040664 0
-0.000776 -0.036941 0
0.009747 -0.030571 0
0.018912 -0.023152 0
0.025429 -0.015948 0
0.028859 -0.009740 0
0.029737 -0.004655 0
0.028946 -0.000450 0
0.027201 0.003150 0
0.024881 0.006288 0
0.022211 0.008969 0
0.019357 0.011142 0
0.016477 0.012751 0
0.013722 0.013778 0
0.011209 0.014261 0
0.009012 0.014289 0
0.007157 0.013979 0
0.005630 0.013454 0
0.004392 0.012822 0
0.003396 0.012164 0
0.002592 0.011540 0
0.001937 0.010997 0
0.001392 0.010588 0
0.000921 0.010368 0
0.000492 0.010130 0
0.000130 0.008223 0
0.000000 -0.000007 0
0.000000 0.000021 0
-0.000461 0.007719 0
-0.001265 0.010542 0
-0.002195 0.011473 0
-0.003174 0.011693 0
-0.004186 0.011683 0
-0.005234 0.011601 0
-0.006331 0.011487 0
-0.007493 0.011343 0
-0.008742 0.011163 0
-0.010107 0.010934 0
-0.011627 0.010631 0
-0.013356 0.010210 0
-0.015372 0.009590 0
-0.017783 0.008602 0
-0.020735 0.006921 0
-0.024364 0.003985 0
-0.028658 -0.000920 0
-0.033155 -0.008139 0
-0.036954 -0.017231 0
-0.039246 -0.027049 0
-0.039459 -0.036163 0
-0.037331 -0.043413 0
-0.032770 -0.048071 0
-0.025783 -0.049704 0
-0.016495 -0.048016 0
-0.004914 -0.042350 0
0.007829 -0.033252 0
0.019514 -0.022802 0
0.027660 -0.012986 0
0.031484 -0.005067 0
0.031792 0.000890 0
0.029993 0.005454 0
0.027132 0.009126 0
0.023744 0.012083 0
0.020169 0.014332 0
0.016661 0.015839 0
0.013423 0.016617 0
0.010588 0.016752 0
0.008215 0.016390 0
0.006296 0.015699 0
0.004781 0.014833 0
0.003603 0.013914 0
0.002693 0.013027 0
0.001989 0.012226 0
0.001438 0.011551 0
0.000998 0.011049 0
0.000629 0.010770 0
0.000304 0.010477 0
0.000046 0.008424 0
0.000000 -0.000010 0
0.000000 0.000022 0
-0.000459 0.008352 0
-0.001264 0.011412 0
-0.002198 0.012431 0
-0.003183 0.012693 0
-0.004199 0.012717 0
-0.005252 0.012678 0
-0.006354 0.012621 0
-0.007520 0.012555 0
-0.008774 0.012478 0
-0.010144 0.012386 0
-0.011669 0.012268 0
-0.013403 0.012102 0
-0.015428 0.011835 0
-0.017863 0.011348 0
-0.020892 0.010354 0
-0.024754 0.008253 0
-0.029647 0.004059 0
-0.035405 -0.003136 0
-0.041074 -0.013152 0
-0.045530 -0.024640 0
-0.048128 -0.035898 0
-0.048534 -0.045530 0
-0.046566 -0.052708 0
-0.042047 -0.056940 0
-0.034838 -0.057812 0
-0.024925 -0.054896 0
-0.012054 -0.047580 0
0.002739 -0.035779 0
0.017308 -0.021710 0
0.027413 -0.008788 0
0.031807 0.001041 0
0.031443 0.007810 0
0.028644 0.012535 0
0.024713 0.015932 0
0.020430 0.018225 0
0.016287 0.019496 0
0.012592 0.019851 0
0.009497 0.019469 0
0.007027 0.018581 0
0.005126 0.017412 0
0.003695 0.016146 0
0.002635 0.014909 0
0.001856 0.013778 0
0.001285 0.012795 0
0.000865 0.011988 0
0.000550 0.011397 0
0.000302 0.011062 0
0.000095 0.010713 0
-0.000042 0.008527 0
0.000000 -0.000012 0
0.000000 0.000023 0
-0.000452 0.008982 0
-0.001255 0.012282 0
-0.002188 0.013391 0
-0.003171 0.013694 0
-0.004186 0.013752 0
-0.005235 0.013755 0
-0.006330 0.013754 0
-0.007488 0.013763 0
-0.008729 0.013787 0
-0.010081 0.013828 0
-0.011580 0.013890 0
-0.013277 0.013970 0
-0.015247 0.014050 0
-0.017604 0.014066 0
-0.020533 0.013813 0
-0.024323 0.012742 0
-0.029338 0.009732 0
-0.035760 0.003289 0
-0.042992 -0.007104 0
-0.049464 -0.019992 0
-0.054281 -0.033157 0
-0.057114 -0.044975 0
-0.057780 -0.054558 0
-0.056035 -0.061434 0
-0.051589 -0.065140 0
-0.044222 -0.065135 0
-0.033836 -0.060916 0
-0.020259 -0.052164 0
-0.003829 -0.037660 0
0.012964 -0.019566 0
0.025058 -0.003141 0
0.029574 0.008616 0
0.028275 0.015856 0
0.024475 0.020298 0
0.019768 0.022758 0
0.015131 0.023676 0
0.011098 0.023407 0
0.007869 0.022317 0
0.005425 0.020762 0
0.003644 0.019032 0
0.002378 0.017324 0