# vtk DataFile Version 2.0
generated by CFD-lab course output (written by Tobias Neckel) 
ASCII

DATASET STRUCTURED_GRID
DIMENSIONS  51 51 1 
POINTS 2601 float

0.000000 0.000000 0
0.020000 0.000000 0
0.040000 0.000000 0
0.060000 0.000000 0
0.080000 0.000000 0
0.100000 0.000000 0
0.120000 0.000000 0
0.140000 0.000000 0
0.160000 0.000000 0
0.180000 0.000000 0
0.200000 0.000000 0
0.220000 0.000000 0
0.240000 0.000000 0
0.260000 0.000000 0
0.280000 0.000000 0
0.300000 0.000000 0
0.320000 0.000000 0
0.340000 0.000000 0
0.360000 0.000000 0
0.380000 0.000000 0
0.400000 0.000000 0
0.420000 0.000000 0
0.440000 0.000000 0
0.460000 0.000000 0
0.480000 0.000000 0
0.500000 0.000000 0
0.520000 0.000000 0
0.540000 0.000000 0
0.560000 0.000000 0
0.580000 0.000000 0
0.600000 0.000000 0
0.620000 0.000000 0
0.640000 0.000000 0
0.660000 0.000000 0
0.680000 0.000000 0
0.700000 0.000000 0
0.720000 0.000000 0
0.740000 0.000000 0
0.760000 0.000000 0
0.780000 0.000000 0
0.800000 0.000000 0
0.820000 0.000000 0
0.840000 0.000000 0
0.860000 0.000000 0
0.880000 0.000000 0
0.900000 0.000000 0
0.920000 0.000000 0
0.940000 0.000000 0
0.960000 0.000000 0
0.980000 0.000000 0
1.000000 0.000000 0
0.000000 0.020000 0
0.020000 0.020000 0
0.040000 0.020000 0
0.060000 0.020000 0
0.080000 0.020000 0
0.100000 0.020000 0
0.120000 0.020000 0
0.140000 0.020000 0
0.160000 0.020000 0
0.180000 0.020000 0
0.200000 0.020000 0
0.220000 0.020000 0
0.240000 0.020000 0
0.260000 0.020000 0
0.280000 0.020000 0
0.300000 0.020000 0
0.320000 0.020000 0
0.340000 0.020000 0
0.360000 0.020000 0
0.380000 0.020000 0
0.400000 0.020000 0
0.420000 0.020000 0
0.440000 0.020000 0
0.460000 0.020000 0
0.480000 0.020000 0
0.500000 0.020000 0
0.520000 0.020000 0
0.540000 0.020000 0
0.560000 0.020000 0
0.580000 0.020000 0
0.600000 0.020000 0
0.620000 0.020000 0
0.640000 0.020000 0
0.660000 0.020000 0
0.680000 0.020000 0
0.700000 0.020000 0
0.720000 0.020000 0
0.740000 0.020000 0
0.760000 0.020000 0
0.780000 0.020000 0
0.800000 0.020000 0
0.820000 0.020000 0
0.840000 0.020000 0
0.860000 0.020000 0
0.880000 0.020000 0
0.900000 0.020000 0
0.920000 0.020000 0
0.940000 0.020000 0
0.960000 0.020000 0
0.980000 0.020000 0
1.000000 0.020000 0
0.000000 0.040000 0
0.020000 0.040000 0
0.040000 0.040000 0
0.060000 0.040000 0
0.080000 0.040000 0
0.100000 0.040000 0
0.120000 0.040000 0
0.140000 0.040000 0
0.160000 0.040000 0
0.180000 0.040000 0
0.200000 0.040000 0
0.220000 0.040000 0
0.240000 0.040000 0
0.260000 0.040000 0
0.280000 0.040000 0
0.300000 0.040000 0
0.320000 0.040000 0
0.340000 0.040000 0
0.360000 0.040000 0
0.380000 0.040000 0
0.400000 0.040000 0
0.420000 0.040000 0
0.440000 0.040000 0
0.460000 0.040000 0
0.480000 0.040000 0
0.500000 0.040000 0
0.520000 0.040000 0
0.540000 0.040000 0
0.560000 0.040000 0
0.580000 0.040000 0
0.600000 0.040000 0
0.620000 0.040000 0
0.640000 0.040000 0
0.660000 0.040000 0
0.680000 0.040000 0
0.700000 0.040000 0
0.720000 0.040000 0
0.740000 0.040000 0
0.760000 0.040000 0
0.780000 0.040000 0
0.800000 0.040000 0
0.820000 0.040000 0
0.840000 0.040000 0
0.860000 0.040000 0
0.880000 0.040000 0
0.900000 0.040000 0
0.920000 0.040000 0
0.940000 0.040000 0
0.960000 0.040000 0
0.980000 0.040000 0
1.000000 0.040000 0
0.000000 0.060000 0
0.020000 0.060000 0
0.040000 0.060000 0
0.060000 0.060000 0
0.080000 0.060000 0
0.100000 0.060000 0
0.120000 0.060000 0
0.140000 0.060000 0
0.160000 0.060000 0
0.180000 0.060000 0
0.200000 0.060000 0
0.220000 0.060000 0
0.240000 0.060000 0
0.260000 0.060000 0
0.280000 0.060000 0
0.300000 0.060000 0
0.320000 0.060000 0
0.340000 0.060000 0
0.360000 0.060000 0
0.380000 0.060000 0
0.400000 0.060000 0
0.420000 0.060000 0
0.440000 0.060000 0
0.460000 0.060000 0
0.480000 0.060000 0
0.500000 0.060000 0
0.520000 0.060000 0
0.540000 0.060000 0
0.560000 0.060000 0
0.580000 0.060000 0
0.600000 0.060000 0
0.620000 0.060000 0
0.640000 0.060000 0
0.660000 0.060000 0
0.680000 0.060000 0
0.700000 0.060000 0
0.720000 0.060000 0
0.740000 0.060000 0
0.760000 0.060000 0
0.780000 0.060000 0
0.800000 0.060000 0
0.820000 0.060000 0
0.840000 0.060000 0
0.860000 0.060000 0
0.880000 0.060000 0
0.900000 0.060000 0
0.920000 0.060000 0
0.940000 0.060000 0
0.960000 0.060000 0
0.980000 0.060000 0
1.000000 0.060000 0
0.000000 0.080000 0
0.020000 0.080000 0
0.040000 0.080000 0
0.060000 0.080000 0
0.080000 0.080000 0
0.100000 0.080000 0
0.120000 0.080000 0
0.140000 0.080000 0
0.160000 0.080000 0
0.180000 0.080000 0
0.200000 0.080000 0
0.220000 0.080000 0
0.240000 0.080000 0
0.260000 0.080000 0
0.280000 0.080000 0
0.300000 0.080000 0
0.320000 0.080000 0
0.340000 0.080000 0
0.360000 0.080000 0
0.380000 0.080000 0
0.400000 0.080000 0
0.420000 0.080000 0
0.440000 0.080000 0
0.460000 0.080000 0
0.480000 0.080000 0
0.500000 0.080000 0
0.520000 0.080000 0
0.540000 0.080000 0
0.560000 0.080000 0
0.580000 0.080000 0
0.600000 0.080000 0
0.620000 0.080000 0
0.640000 0.080000 0
0.660000 0.080000 0
0.680000 0.080000 0
0.700000 0.080000 0
0.720000 0.080000 0
0.740000 0.080000 0
0.760000 0.080000 0
0.780000 0.080000 0
0.800000 0.080000 0
0.820000 0.080000 0
0.840000 0.080000 0
0.860000 0.080000 0
0.880000 0.080000 0
0.900000 0.080000 0
0.920000 0.080000 0
0.940000 0.080000 0
0.960000 0.080000 0
0.980000 0.080000 0
1.000000 0.080000 0
0.000000 0.100000 0
0.020000 0.100000 0
0.040000 0.100000 0
0.060000 0.100000 0
0.080000 0.100000 0
0.100000 0.100000 0
0.120000 0.100000 0
0.140000 0.100000 0
0.160000 0.100000 0
0.180000 0.100000 0
0.200000 0.100000 0
0.220000 0.100000 0
0.240000 0.100000 0
0.260000 0.100000 0
0.280000 0.100000 0
0.300000 0.100000 0
0.320000 0.100000 0
0.340000 0.100000 0
0.360000 0.100000 0
0.380000 0.100000 0
0.400000 0.100000 0
0.420000 0.100000 0
0.440000 0.100000 0
0.460000 0.100000 0
0.480000 0.100000 0
0.500000 0.100000 0
0.520000 0.100000 0
0.540000 0.100000 0
0.560000 0.100000 0
0.580000 0.100000 0
0.600000 0.100000 0
0.620000 0.100000 0
0.640000 0.100000 0
0.660000 0.100000 0
0.680000 0.100000 0
0.700000 0.100000 0
0.720000 0.100000 0
0.740000 0.100000 0
0.760000 0.100000 0
0.780000 0.100000 0
0.800000 0.100000 0
0.820000 0.100000 0
0.840000 0.100000 0
0.860000 0.100000 0
0.880000 0.100000 0
0.900000 0.100000 0
0.920000 0.100000 0
0.940000 0.100000 0
0.960000 0.100000 0
0.980000 0.100000 0
1.000000 0.100000 0
0.000000 0.120000 0
0.020000 0.120000 0
0.040000 0.120000 0
0.060000 0.120000 0
0.080000 0.120000 0
0.100000 0.120000 0
0.120000 0.120000 0
0.140000 0.120000 0
0.160000 0.120000 0
0.180000 0.120000 0
0.200000 0.120000 0
0.220000 0.120000 0
0.240000 0.120000 0
0.260000 0.120000 0
0.280000 0.120000 0
0.300000 0.120000 0
0.320000 0.120000 0
0.340000 0.120000 0
0.360000 0.120000 0
0.380000 0.120000 0
0.400000 0.120000 0
0.420000 0.120000 0
0.440000 0.120000 0
0.460000 0.120000 0
0.480000 0.120000 0
0.500000 0.120000 0
0.520000 0.120000 0
0.540000 0.120000 0
0.560000 0.120000 0
0.580000 0.120000 0
0.600000 0.120000 0
0.620000 0.120000 0
0.640000 0.120000 0
0.660000 0.120000 0
0.680000 0.120000 0
0.700000 0.120000 0
0.720000 0.120000 0
0.740000 0.120000 0
0.760000 0.120000 0
0.780000 0.120000 0
0.800000 0.120000 0
0.820000 0.120000 0
0.840000 0.120000 0
0.860000 0.120000 0
0.880000 0.120000 0
0.900000 0.120000 0
0.920000 0.120000 0
0.940000 0.120000 0
0.960000 0.120000 0
0.980000 0.120000 0
1.000000 0.120000 0
0.000000 0.140000 0
0.020000 0.140000 0
0.040000 0.140000 0
0.060000 0.140000 0
0.080000 0.140000 0
0.100000 0.140000 0
0.120000 0.140000 0
0.140000 0.140000 0
0.160000 0.140000 0
0.180000 0.140000 0
0.200000 0.140000 0
0.220000 0.140000 0
0.240000 0.140000 0
0.260000 0.140000 0
0.280000 0.140000 0
0.300000 0.140000 0
0.320000 0.140000 0
0.340000 0.140000 0
0.360000 0.140000 0
0.380000 0.140000 0
0.400000 0.140000 0
0.420000 0.140000 0
0.440000 0.140000 0
0.460000 0.140000 0
0.480000 0.140000 0
0.500000 0.140000 0
0.520000 0.140000 0
0.540000 0.140000 0
0.560000 0.140000 0
0.580000 0.140000 0
0.600000 0.140000 0
0.620000 0.140000 0
0.640000 0.140000 0
0.660000 0.140000 0
0.680000 0.140000 0
0.700000 0.140000 0
0.720000 0.140000 0
0.740000 0.140000 0
0.760000 0.140000 0
0.780000 0.140000 0
0.800000 0.140000 0
0.820000 0.140000 0
0.840000 0.140000 0
0.860000 0.140000 0
0.880000 0.140000 0
0.900000 0.140000 0
0.920000 0.140000 0
0.940000 0.140000 0
0.960000 0.140000 0
0.980000 0.140000 0
1.000000 0.140000 0
0.000000 0.160000 0
0.020000 0.160000 0
0.040000 0.160000 0
0.060000 0.160000 0
0.080000 0.160000 0
0.100000 0.160000 0
0.120000 0.160000 0
0.140000 0.160000 0
0.160000 0.160000 0
0.180000 0.160000 0
0.200000 0.160000 0
0.220000 0.160000 0
0.240000 0.160000 0
0.260000 0.160000 0
0.280000 0.160000 0
0.300000 0.160000 0
0.320000 0.160000 0
0.340000 0.160000 0
0.360000 0.160000 0
0.380000 0.160000 0
0.400000 0.160000 0
0.420000 0.160000 0
0.440000 0.160000 0
0.460000 0.160000 0
0.480000 0.160000 0
0.500000 0.160000 0
0.520000 0.160000 0
0.540000 0.160000 0
0.560000 0.160000 0
0.580000 0.160000 0
0.600000 0.160000 0
0.620000 0.160000 0
0.640000 0.160000 0
0.660000 0.160000 0
0.680000 0.160000 0
0.700000 0.160000 0
0.720000 0.160000 0
0.740000 0.160000 0
0.760000 0.160000 0
0.780000 0.160000 0
0.800000 0.160000 0
0.820000 0.160000 0
0.840000 0.160000 0
0.860000 0.160000 0
0.880000 0.160000 0
0.900000 0.160000 0
0.920000 0.160000 0
0.940000 0.160000 0
0.960000 0.160000 0
0.980000 0.160000 0
1.000000 0.160000 0
0.000000 0.180000 0
0.020000 0.180000 0
0.040000 0.180000 0
0.060000 0.180000 0
0.080000 0.180000 0
0.100000 0.180000 0
0.120000 0.180000 0
0.140000 0.180000 0
0.160000 0.180000 0
0.180000 0.180000 0
0.200000 0.180000 0
0.220000 0.180000 0
0.240000 0.180000 0
0.260000 0.180000 0
0.280000 0.180000 0
0.300000 0.180000 0
0.320000 0.180000 0
0.340000 0.180000 0
0.360000 0.180000 0
0.380000 0.180000 0
0.400000 0.180000 0
0.420000 0.180000 0
0.440000 0.180000 0
0.460000 0.180000 0
0.480000 0.180000 0
0.500000 0.180000 0
0.520000 0.180000 0
0.540000 0.180000 0
0.560000 0.180000 0
0.580000 0.180000 0
0.600000 0.180000 0
0.620000 0.180000 0
[...]
POINT_DATA 2601 

VECTORS velocity float
0.000000 0.000000 0
0.000004 0.000000 0
0.000006 0.000000 0
0.000007 0.000000 0
0.000007 0.000000 0
0.000008 0.000000 0
0.000007 0.000000 0
0.000006 0.000000 0
0.000003 0.000000 0
-0.000002 0.000000 0
-0.000011 0.000000 0
-0.000024 0.000000 0
-0.000042 0.000000 0
-0.000066 0.000000 0
-0.000095 0.000000 0
-0.000132 0.000000 0
-0.000154 0.000000 0
-0.000153 0.000000 0
-0.000134 0.000000 0
-0.000074 0.000000 0
0.000019 0.000000 0
0.000077 0.000000 0
0.000093 0.000000 0
0.000086 0.000000 0
0.000066 0.000000 0
0.000047 0.000000 0
0.000026 0.000000 0
0.000007 0.000000 0
0.000001 0.000000 0
0.000000 0.000000 0
0.000000 0.000000 0
0.000000 0.000000 0
0.000000 0.000000 0
0.000001 0.000000 0
0.000001 0.000000 0
0.000001 0.000000 0
0.000001 0.000000 0
0.000002 0.000000 0
0.000002 0.000000 0
0.000003 0.000000 0
0.000003 0.000000 0
0.000003 0.000000 0
0.000002 0.000000 0
0.000002 0.000000 0
0.000002 0.000000 0
0.000002 0.000000 0
0.000001 0.000000 0
0.000001 0.000000 0
0.000000 0.000000 0
0.000000 0.000000 0
0.000000 0.000000 0
0.000000 -0.000004 0
-0.012840 0.011278 0
-0.027658 0.011281 0
-0.040240 0.009486 0
-0.051471 0.008197 0
-0.061280 0.006893 0
-0.069551 0.005538 0
-0.076054 0.004065 0
-0.080480 0.002399 0
-0.082443 0.000372 0
-0.081501 -0.002408 0
-0.077217 -0.006200 0
-0.069214 -0.011010 0
-0.057149 -0.016913 0
-0.040713 -0.023910 0
-0.019745 -0.029742 0
0.005395 -0.032631 0
0.034263 -0.031760 0
0.065053 -0.025328 0
0.092720 -0.011477 0
0.109431 0.005982 0
0.104878 0.019358 0
0.086095 0.026128 0
0.062191 0.026825 0
0.039195 0.022926 0
0.020463 0.016307 0
0.007530 0.008730 0
0.000510 0.002756 0
-0.002039 0.000103 0
-0.002299 -0.000472 0
-0.001870 -0.000584 0
-0.001219 -0.000609 0
-0.000494 -0.000591 0
0.000214 -0.000521 0
0.000810 -0.000396 0
0.001209 -0.000228 0
0.001351 -0.000038 0
0.001224 0.000140 0
0.000870 0.000273 0
0.000377 0.000338 0
-0.000148 0.000336 0
-0.000616 0.000283 0
-0.000968 0.000200 0
-0.001171 0.000104 0
-0.001211 0.000003 0
-0.001089 -0.000090 0
-0.000835 -0.000157 0
-0.000515 -0.000173 0
-0.000216 -0.000124 0
-0.000030 -0.000028 0
0.000000 0.000000 0
0.000000 -0.000008 0
-0.016473 0.027658 0
-0.034563 0.027400 0
-0.050263 0.023813 0
-0.064291 0.021039 0
-0.076493 0.018080 0
-0.086630 0.014774 0
-0.094368 0.010929 0
-0.099367 0.006390 0
-0.101366 0.001022 0
-0.100307 -0.005228 0
-0.096517 -0.012290 0
-0.090303 -0.020071 0
-0.082007 -0.028503 0
-0.072057 -0.037405 0
-0.060920 -0.046109 0
-0.047088 -0.054010 0
-0.029766 -0.059659 0
-0.007873 -0.058459 0
0.018577 -0.044380 0
0.048911 -0.012157 0
0.073410 0.023336 0
0.066923 0.042685 0
0.054742 0.046898 0
0.040936 0.041729 0
0.027723 0.031665 0
0.016418 0.019952 0
0.007627 0.009569 0
0.001947 0.002809 0
-0.000552 -0.000170 0
-0.001046 -0.001080 0
-0.000716 -0.001376 0
-0.000136 -0.001433 0
0.000507 -0.001304 0
0.001087 -0.000995 0
0.001470 -0.000541 0
0.001551 -0.000016 0
0.001291 0.000482 0
0.000742 0.000848 0
0.000021 0.001018 0
-0.000725 0.000993 0
-0.001377 0.000820 0
-0.001849 0.000555 0
-0.002087 0.000243 0
-0.002067 -0.000082 0
-0.001806 -0.000376 0
-0.001372 -0.000574 0
-0.000866 -0.000619 0
-0.000406 -0.000485 0
-0.000099 -0.000216 0
0.000000 0.000000 0
0.000000 -0.000012 0
-0.017444 0.045841 0
-0.036672 0.045071 0
-0.053016 0.039214 0
-0.067173 0.034428 0
-0.079037 0.029233 0
-0.088441 0.023412 0
-0.095249 0.016803 0
-0.099459 0.009398 0
-0.101256 0.001312 0
-0.100997 -0.007258 0
-0.099109 -0.016207 0
-0.095891 -0.025521 0
-0.091635 -0.035158 0
-0.086646 -0.044997 0
-0.081165 -0.054711 0
-0.075075 -0.063784 0
-0.068470 -0.070976 0
-0.060741 -0.073672 0
-0.049137 -0.068259 0
-0.029666 -0.048853 0
0.001782 0.001345 0
0.029372 0.044797 0
0.035188 0.052813 0
0.033912 0.049944 0
0.029698 0.040825 0
0.023716 0.028826 0
0.017085 0.017227 0
0.010575 0.008282 0
0.005639 0.002520 0
0.003014 -0.000420 0
0.001958 -0.001519 0
0.001639 -0.001814 0
0.001616 -0.001745 0
0.001730 -0.001360 0
0.001807 -0.000692 0
0.001685 0.000140 0
0.001290 0.000949 0
0.000653 0.001544 0
-0.000117 0.001806 0
-0.000881 0.001734 0
-0.001525 0.001407 0
-0.001958 0.000910 0
-0.002123 0.000321 0
-0.002007 -0.000277 0
-0.001664 -0.000785 0
-0.001194 -0.001097 0
-0.000706 -0.001139 0
-0.000306 -0.000890 0
-0.000066 -0.000434 0
0.000000 0.000001 0
0.000000 -0.000014 0
-0.016972 0.064330 0
-0.036286 0.062971 0
-0.052265 0.054314 0
-0.065588 0.047061 0
-0.076403 0.039347 0
-0.084789 0.030986 0
-0.090926 0.021948 0
-0.095110 0.012397 0
-0.097703 0.002559 0
-0.099051 -0.007376 0
-0.099436 -0.017398 0
-0.099083 -0.027545 0
-0.098218 -0.037748 0
-0.097123 -0.047877 0
-0.096108 -0.057680 0
-0.095443 -0.066705 0
-0.095408 -0.073994 0
-0.095761 -0.077790 0
-0.095156 -0.075453 0
-0.090926 -0.063078 0
-0.077112 -0.035703 0
-0.035268 0.009280 0
0.001921 0.042359 0
0.022976 0.047217 0
0.029015 0.041860 0
0.028691 0.032565 0
0.025685 0.022711 0
0.020440 0.014255 0
0.014840 0.007391 0
0.010423 0.002601 0
0.007347 -0.000002 0
0.005222 -0.001092 0
0.003869 -0.001395 0
0.003139 -0.001186 0
0.002681 -0.000496 0
0.002228 0.000502 0
0.001660 0.001514 0
0.000985 0.002254 0
0.000278 0.002552 0
-0.000367 0.002401 0
-0.000866 0.001897 0
-0.001153 0.001154 0
-0.001198 0.000292 0
-0.001022 -0.000541 0
-0.000720 -0.001189 0
-0.000393 -0.001532 0
-0.000124 -0.001508 0
0.000030 -0.001125 0
0.000052 -0.000521 0
0.000000 0.000001 0
0.000000 -0.000016 0
-0.015432 0.082127 0
-0.034151 0.080364 0
-0.049314 0.068515 0
-0.061497 0.058566 0
-0.071254 0.048434 0
-0.078945 0.037936 0
-0.084979 0.027123 0
-0.089751 0.016175 0
-0.093568 0.005252 0
-0.096637 -0.005527 0
-0.099110 -0.016176 0
-0.101255 -0.026738 0
-0.103251 -0.037117 0
-0.105336 -0.047108 0
-0.107806 -0.056392 0
-0.111016 -0.064484 0
-0.115309 -0.070659 0
-0.120675 -0.073923 0
-0.126275 -0.073094 0
-0.129802 -0.066898 0
-0.126431 -0.054313 0
-0.108336 -0.034235 0
-0.067413 -0.005432 0
-0.025328 0.022850 0
0.007844 0.035110 0
0.028102 0.032156 0
0.034563 0.025479 0
0.031939 0.019127 0
0.025927 0.012537 0
0.020268 0.007073 0
0.015245 0.003682 0
0.010979 0.001664 0
0.007744 0.000339 0
0.005669 -0.000171 0
0.004331 0.000219 0
0.003337 0.001160 0
0.002500 0.002192 0
0.001782 0.002925 0
0.001201 0.003157 0
0.000775 0.002879 0
0.000515 0.002194 0
0.000419 0.001242 0
0.000462 0.000190 0
0.000576 -0.000755 0
0.000671 -0.001414 0
0.000689 -0.001693 0
0.000609 -0.001562 0
0.000429 -0.001067 0
0.000184 -0.000404 0
0.000000 0.000001 0
0.000000 -0.000015 0
-0.013055 0.098480 0
-0.030698 0.096853 0
-0.044958 0.081660 0
-0.056048 0.069001 0
-0.064979 0.056795 0
-0.072330 0.044712 0
-0.078599 0.032754 0
-0.084152 0.020985 0
-0.089212 0.009445 0
-0.093900 -0.001835 0
-0.098290 -0.012780 0
-0.102659 -0.023402 0
-0.107187 -0.033667 0
-0.112029 -0.043322 0
-0.117356 -0.052000 0
-0.123335 -0.059203 0
-0.130062 -0.064335 0
-0.137396 -0.066824 0
-0.144754 -0.066327 0
-0.150864 -0.062921 0
-0.153579 -0.057168 0
-0.150011 -0.049738 0
-0.136237 -0.040650 0
-0.107718 -0.028039 0
-0.069859 -0.011570 0
-0.033943 0.005846 0
-0.005537 0.018874 0
0.014727 0.022890 0
0.025906 0.019062 0
0.027692 0.013284 0
0.024560 0.009288 0
0.019037 0.006409 0
0.013400 0.003915 0
0.009433 0.002228 0
0.006802 0.001835 0
0.004972 0.002332 0
0.003699 0.003069 0
0.002880 0.003554 0
0.002441 0.003559 0
0.002283 0.003088 0
0.002292 0.002252 0
0.002360 0.001206 0
0.002388 0.000135 0
0.002295 -0.000750 0
0.002058 -0.001302 0
0.001691 -0.001470 0
0.001236 -0.001247 0
0.000743 -0.000701 0
0.000277 -0.000092 0
0.000000 0.000001 0
0.000000 -0.000013 0
-0.010087 0.112824 0
-0.026270 0.112266 0
-0.039760 0.093865 0
-0.049983 0.078587 0
-0.058338 0.064716 0
-0.065562 0.051556 0
-0.072151 0.038946 0
-0.078424 0.026788 0
-0.084576 0.014999 0
-0.090723 0.003550 0
-0.096933 -0.007417 0
-0.103222 -0.017841 0
-0.109897 -0.027747 0
-0.117042 -0.036940 0
-0.124688 -0.045086 0
-0.132785 -0.051778 0
-0.141129 -0.056597 0
-0.149307 -0.059232 0
-0.156679 -0.059627 0
-0.162455 -0.058072 0
-0.165881 -0.055166 0
-0.166448 -0.051577 0
-0.163797 -0.047725 0
-0.157254 -0.043528 0
-0.144488 -0.038665 0
-0.124373 -0.032166 0
-0.097504 -0.023192 0
-0.068172 -0.012316 0
-0.041673 -0.000428 0
-0.021333 0.008419 0
-0.006855 0.012338 0
0.002589 0.012824 0
0.007477 0.009943 0
0.008222 0.006427 0
0.007067 0.004680 0
0.005390 0.004264 0
0.003980 0.004284 0
0.003182 0.004183 0
0.002979 0.003754 0
0.003153 0.003027 0
0.003442 0.002116 0
0.003634 0.001147 0
0.003599 0.000256 0
0.003297 -0.000425 0
0.002782 -0.000810 0
0.002140 -0.000872 0
0.001457 -0.000615 0
0.000811 -0.000108 0
0.000282 0.000339 0
0.000000 0.000001 0
0.000000 -0.000009 0
-0.006831 0.124750 0
-0.021163 0.126526 0
-0.034098 0.105373 0
-0.043754 0.087579 0
-0.051725 0.072374 0
-0.058907 0.058524 0
-0.065779 0.045616 0
-0.072639 0.033410 0
-0.079691 0.021743 0
-0.087067 0.010521 0
-0.094829 -0.000281 0
-0.102873 -0.010439 0
-0.111243 -0.019848 0
-0.120128 -0.028530 0
-0.129459 -0.036257 0
-0.139042 -0.042762 0
-0.148525 -0.047812 0
-0.157393 -0.051275 0
-0.165022 -0.053180 0
-0.170811 -0.053718 0
-0.174353 -0.053175 0
-0.175563 -0.051823 0
-0.174661 -0.049844 0
-0.171984 -0.047348 0
-0.167689 -0.044451 0
-0.161780 -0.041138 0
-0.153389 -0.037327 0
-0.141540 -0.032941 0
-0.125740 -0.027777 0
-0.105753 -0.021534 0
-0.085050 -0.014633 0
-0.065167 -0.007922 0
-0.048011 -0.001718 0
-0.035072 0.002638 0
-0.025512 0.004667 0
-0.018219 0.005419 0
-0.012505 0.005278 0
-0.008034 0.004555 0
-0.004644 0.003588 0
-0.002194 0.002625 0
-0.000520 0.001771 0
0.000527 0.001049 0
0.001065 0.000473 0
0.001214 0.000067 0
0.001110 -0.000146 0
0.000866 -0.000145 0
0.000568 0.000082 0
0.000288 0.000474 0
0.000099 0.000719 0
0.000000 0.000001 0
0.000000 -0.000005 0
-0.003645 0.133986 0
-0.015647 0.139532 0
-0.028181 0.116456 0
-0.037598 0.096215 0
-0.045332 0.079870 0
-0.052499 0.065610 0
-0.059599 0.052678 0
-0.066924 0.040699 0
-0.074672 0.029426 0
-0.082965 0.018687 0
-0.091853 0.008390 0
-0.101329 -0.001426 0
-0.111145 -0.010492 0
-0.121222 -0.018724 0
-0.131613 -0.026173 0
-0.142082 -0.032712 0
-0.152275 -0.038245 0
-0.161717 -0.042735 0
-0.169909 -0.046208 0
-0.176406 -0.048741 0
-0.180905 -0.050414 0
-0.183284 -0.051269 0
-0.183579 -0.051304 0
-0.181946 -0.050500 0
-0.178626 -0.048869 0
-0.173950 -0.046466 0
-0.168154 -0.043432 0
-0.161422 -0.039965 0
-0.153789 -0.036215 0
-0.145066 -0.032271 0
-0.134774 -0.028248 0
-0.122910 -0.024215 0
-0.109655 -0.020153 0
-0.095210 -0.016072 0
-0.081024 -0.012173 0
-0.067724 -0.008744 0
-0.055690 -0.005901 0
-0.045171 -0.003677 0
-0.036235 -0.002085 0
-0.028787 -0.001097 0
-0.022639 -0.000606 0
-0.017595 -0.000439 0
-0.013474 -0.000431 0
-0.010112 -0.000470 0
-0.007363 -0.000462 0
-0.005112 -0.000330 0
-0.003264 -0.000036 0
-0.001750 0.000362 0
-0.000582 0.000627 0
0.000000 -0.000001 0
0.000000 0.000000 0
-0.000925 0.140397 0
-0.009993 0.151063 0
-0.022096 0.127325 0
-0.031602 0.104729 0
-0.039242 0.087275 0
-0.046406 0.072792 0
-0.053685 0.060041 0
-0.061359 0.048483 0
-0.069599 0.037783 0
-0.078499 0.027703 0
-0.088096 0.018084 0
-0.098371 0.008853 0
-0.109203 0.000046 0
-0.120247 -0.008063 0
-0.131277 -0.015397 0
-0.142174 -0.022100 0
-0.152730 -0.028177 0
-0.162582 -0.033641 0
-0.171357 -0.038491 0
-0.178720 -0.042721 0
-0.184412 -0.046298 0
-0.188262 -0.049149 0
-0.190179 -0.051181 0
-0.190139 -0.052300 0
-0.188184 -0.052447 0
-0.184431 -0.051611 0
-0.179060 -0.049855 0
-0.172347 -0.047306 0
-0.164617 -0.044133 0
-0.156172 -0.040549 0
-0.147242 -0.036790 0
-0.138026 -0.033041 0
-0.128605 -0.029418 0
-0.118964 -0.025993 0
-0.109023 -0.022818 0
-0.098844 -0.019915 0
-0.088563 -0.017276 0
-0.078328 -0.014900 0
-0.068308 -0.012796 0
-0.058685 -0.010971 0
-0.049629 -0.009421 0
-0.041253 -0.008116 0
-0.033599 -0.007011 0
-0.026660 -0.006044 0
-0.020414 -0.005146 0
-0.014820 -0.004245 0
-0.009846 -0.003279 0
-0.005508 -0.002207 0
-0.001993 -0.001032 0
0.000000 -0.000006 0
0.000000 0.000004 0
0.001092 0.143979 0
-0.004528 0.160704 0
-0.015874 0.138066 0
-0.025745 0.113361 0
-0.033475 0.094673 0
-0.040652 0.080053 0
-0.048067 0.067631 0
-0.055996 0.056614 0
-0.064558 0.046566 0
-0.073796 0.037183 0
-0.083706 0.028262 0
-0.094255 0.019681 0
-0.105367 0.011383 0
-0.116880 0.003350 0
-0.128384 -0.004246 0
-0.139600 -0.011258 0
-0.150282 -0.017838 0
-0.160361 -0.024108 0
-0.169595 -0.030069 0
-0.177729 -0.035685 0
-0.184514 -0.040871 0
-0.189735 -0.045502 0
-0.193213 -0.049427 0
-0.194811 -0.052495 0
-0.194450 -0.054577 0
-0.192121 -0.055589 0
-0.187896 -0.055515 0
-0.181942 -0.054408 0
-0.174500 -0.052390 0
-0.165866 -0.049646 0
-0.156371 -0.046394 0
-0.146357 -0.042852 0
-0.136113 -0.039216 0
-0.125856 -0.035654 0
-0.115724 -0.032293 0
-0.105803 -0.029204 0
-0.096122 -0.026417 0
-0.086679 -0.023931 0
-0.077464 -0.021728 0
-0.068480 -0.019776 0
-0.059742 -0.018037 0
-0.051279 -0.016469 0
-0.043123 -0.015024 0
-0.035306 -0.013654 0
-0.027859 -0.012302 0
-0.020815 -0.010897 0
-0.014223 -0.009349 0
-0.008206 -0.007491 0
-0.003094 -0.004880 0
0.000000 -0.000009 0
0.000000 0.000008 0
0.002468 0.144924 0
0.000357 0.168029 0
-0.009579 0.148541 0
-0.019938 0.122330 0
-0.027994 0.102182 0
-0.035227 0.087385 0
-0.042738 0.075385 0
-0.050834 0.064973 0
-0.059575 0.055583 0
-0.068944 0.046852 0
-0.078893 0.038544 0
-0.089359 0.030514 0
-0.100266 0.022671 0
-0.111510 0.014955 0
-0.122961 0.007323 0
-0.134283 -0.000201 0
-0.145157 -0.007416 0
-0.155355 -0.014328 0
-0.164835 -0.021122 0
-0.173503 -0.027802 0
-0.181147 -0.034292 0
-0.187530 -0.040450 0
-0.192422 -0.046104 0
-0.195606 -0.051063 0
-0.196900 -0.055137 0
-0.196183 -0.058165 0
-0.193417 -0.060033 0
-0.188663 -0.060701 0
-0.182087 -0.060209 0
-0.173945 -0.058678 0
-0.164563 -0.056299 0
-0.154299 -0.053300 0
-0.143495 -0.049919 0
-0.132453 -0.046382 0
-0.121414 -0.042871 0
-0.110557 -0.039517 0
-0.099995 -0.036400 0
-0.089792 -0.033557 0
-0.079973 -0.030994 0
-0.070542 -0.028694 0
-0.061491 -0.026622 0
-0.052806 -0.024735 0
-0.044474 -0.022983 0
-0.036489 -0.021307 0
-0.028853 -0.019637 0
-0.021586 -0.017881 0
-0.014743 -0.015888 0
-0.008467 -0.013337 0
-0.003141 -0.009237 0
0.000000 -0.000008 0
0.000000 0.000011 0
0.003389 0.143621 0
0.004249 0.172751 0
-0.003314 0.158361 0
-0.014065 0.131777 0
-0.022717 0.109963 0
-0.030094 0.094797 0
-0.037659 0.083238 0
-0.045833 0.073450 0
-0.054626 0.064677 0
-0.063965 0.056502 0
-0.073759 0.048677 0
-0.083925 0.041055 0
-0.094388 0.033535 0
-0.105068 0.026045 0
-0.115883 0.018527 0
-0.126740 0.010938 0
-0.137476 0.003235 0
-0.147748 -0.004429 0
-0.157363 -0.011920 0
-0.166252 -0.019372 0
-0.174414 -0.026844 0
-0.181642 -0.034226 0
-0.187692 -0.041351 0
-0.192310 -0.048017 0
-0.195246 -0.053999 0
-0.196280 -0.059073 0
-0.195257 -0.063036 0
-0.192113 -0.065738 0
-0.186898 -0.067108 0
-0.179781 -0.067169 0
-0.171038 -0.066040 0
-0.161022 -0.063920 0
-0.150117 -0.061062 0
-0.138695 -0.057736 0
-0.127083 -0.054189 0
-0.115537 -0.050623 0
-0.104238 -0.047182 0
-0.093297 -0.043954 0
-0.082777 -0.040978 0
-0.072702 -0.038258 0
-0.063074 -0.035774 0
-0.053885 -0.033485 0
-0.045124 -0.031341 0
-0.036782 -0.029275 0
-0.028861 -0.027205 0
-0.021385 -0.025008 0
-0.014419 -0.022468 0
-0.008125 -0.019093 0
-0.002907 -0.013347 0
0.000000 -0.000007 0
0.000000 0.000014 0
0.003994 0.140675 0
0.006990 0.174732 0
0.002551 0.166855 0
-0.008012 0.141734 0
-0.017507 0.118212 0
-0.025183 0.102327 0
-0.032773 0.091124 0
-0.040934 0.081940 0
-0.049666 0.073715 0
-0.058847 0.065984 0
-0.068356 0.058505 0
-0.078095 0.051143 0
-0.087990 0.043814 0
-0.097979 0.036451 0
-0.108013 0.028995 0
-0.118046 0.021393 0
-0.128029 0.013593 0
-0.137909 0.005560 0
-0.147432 -0.002618 0
-0.156370 -0.010751 0
-0.164658 -0.018901 0
-0.172332 -0.027172 0
-0.179181 -0.035436 0
-0.184954 -0.043509 0
-0.189376 -0.051166 0
-0.192163 -0.058153 0
-0.193054 -0.064200 0
-0.191858 -0.069060 0
-0.188478 -0.072541 0
-0.182950 -0.074538 0
-0.175442 -0.075058 0
-0.166247 -0.074221 0
-0.155745 -0.072246 0
-0.144352 -0.069415 0
-0.132471 -0.066029 0
-0.120451 -0.062363 0
-0.108558 -0.058640 0
-0.096978 -0.055018 0
-0.085822 -0.051590 0
-0.075147 -0.048397 0
-0.064973 -0.045438 0
-0.055301 -0.042685 0
-0.046120 -0.040087 0
-0.037423 -0.037570 0
-0.029213 -0.035034 0
-0.021517 -0.032322 0
-0.014405 -0.029148 0
-0.008046 -0.024849 0
-0.002849 -0.017362 0
0.000000 -0.000007 0
0.000000 0.000016 0
0.004361 0.136631 0
0.008766 0.174194 0
0.007338 0.173363 0
-0.001682 0.151835 0
-0.012193 0.127134 0
-0.020399 0.110063 0
-0.028017 0.098989 0
-0.036077 0.090344 0
-0.044645 0.082589 0
-0.053570 0.075192 0
-0.062709 0.067927 0
-0.071950 0.060689 0
-0.081216 0.053419 0
-0.090452 0.046068 0
-0.099627 0.038595 0
-0.108728 0.030955 0
-0.117754 0.023098 0
-0.126708 0.014974 0
-0.135578 0.006542 0
-0.144225 -0.002146 0
-0.152401 -0.010882 0
-0.160088 -0.019703 0
-0.167311 -0.028728 0
-0.173856 -0.037821 0
-0.179467 -0.046791 0
-0.183841 -0.055395 0
-0.186651 -0.063340 0
-0.187589 -0.070314 0
-0.186408 -0.076016 0
-0.182974 -0.080205 0
-0.177298 -0.082742 0
-0.169550 -0.083616 0
-0.160042 -0.082958 0
-0.149188 -0.081009 0
-0.137440 -0.078090 0
-0.125233 -0.074536 0
-0.112934 -0.070655 0
-0.100822 -0.066690 0
-0.089083 -0.062809 0
-0.077826 -0.059107 0
-0.067106 -0.055620 0
-0.056941 -0.052338 0
-0.047332 -0.049218 0
-0.038275 -0.046182 0
-0.029773 -0.043112 0
-0.021853 -0.039816 0
-0.014585 -0.035938 0
-0.008134 -0.030649 0
-0.002897 -0.021394 0
0.000000 -0.000007 0
0.000000 0.000018 0
0.004550 0.131909 0
0.009808 0.171755 0
0.010761 0.177302 0
0.004465 0.161265 0
-0.006534 0.136929 0
-0.015586 0.118151 0
-0.023316 0.106803 0
-0.031208 0.098568 0
-0.039522 0.091208 0
-0.048116 0.084049 0
-0.056830 0.076886 0
-0.065539 0.069651 0
-0.074157 0.062316 0
-0.082628 0.054862 0
-0.090928 0.047271 0
-0.099057 0.039521 0
-0.107039 0.031573 0
-0.114915 0.023384 0
-0.122730 0.014899 0
-0.130522 0.006073 0
-0.138225 -0.003037 0
-0.145606 -0.012262 0
-0.152747 -0.021668 0
-0.159606 -0.031353 0
-0.165984 -0.041181 0
-0.171614 -0.050968 0
-0.176151 -0.060452 0
-0.179212 -0.069303 0
-0.180417 -0.077156 0
-0.179454 -0.083648 0
-0.176139 -0.088481 0
-0.170456 -0.091476 0
-0.162581 -0.092608 0
-0.152856 -0.092018 0
-0.141737 -0.089984 0
-0.129720 -0.086868 0
-0.117276 -0.083050 0
-0.104793 -0.078869 0
-0.092557 -0.074586 0
-0.080755 -0.070374 0
-0.069493 -0.066323 0
-0.058825 -0.062459 0
-0.048768 -0.058753 0
-0.039329 -0.055129 0
-0.030514 -0.051456 0
-0.022347 -0.047510 0
-0.014897 -0.042867 0
-0.008321 -0.036537 0
-0.002996 -0.025496 0
0.000000 -0.000007 0
0.000000 0.000019 0
0.004609 0.126823 0
0.010312 0.167983 0
0.013005 0.178706 0
0.009563 0.169130 0
-0.000350 0.147185 0
-0.010569 0.126846 0
-0.018590 0.114611 0
-0.026284 0.106549 0
-0.034268 0.099497 0
-0.042470 0.092500 0
-0.050722 0.085350 0
-0.058888 0.078017 0
-0.066867 0.070508 0
-0.074597 0.062840 0
-0.082049 0.055024 0
-0.089225 0.047067 0
-0.096162 0.038957 0
-0.102919 0.030666 0
-0.109578 0.022149 0
-0.116232 0.013348 0
-0.122962 0.004202 0
-0.129730 -0.005181 0
-0.136354 -0.014728 0
-0.143039 -0.024583 0
-0.149683 -0.034783 0
-0.156094 -0.045227 0
-0.161971 -0.055742 0
-0.166914 -0.066048 0
-0.170458 -0.075773 0
-0.172137 -0.084483 0
-0.171559 -0.091740 0
-0.168484 -0.097173 0
-0.162877 -0.100557 0
-0.154928 -0.101854 0
-0.145023 -0.101225 0
-0.133675 -0.098996 0
-0.121436 -0.095582 0
-0.108812 -0.091409 0
-0.096212 -0.086848 0
-0.083927 -0.082171 0
-0.072143 -0.077550 0
-0.060963 -0.073063 0
-0.050439 -0.068714 0
-0.040592 -0.064437 0
-0.031435 -0.060093 0
-0.022993 -0.055432 0
-0.015330 -0.049965 0
-0.008593 -0.042551 0
-0.003139 -0.029714 0
0.000000 -0.000007 0
0.000000 0.000020 0
0.004573 0.121597 0
0.010439 0.163359 0
0.014308 0.178052 0
0.013314 0.174620 0
0.005797 0.157061 0
-0.005070 0.136392 0
-0.013712 0.122518 0
-0.021264 0.114247 0
-0.028867 0.107394 0
-0.036625 0.100503 0
-0.044389 0.093304 0
-0.052010 0.085796 0
-0.059375 0.078025 0
-0.066409 0.070044 0
-0.073072 0.061900 0
-0.079361 0.053634 0
-0.085310 0.045267 0
-0.090983 0.036800 0
-0.096474 0.028212 0