# vtk DataFile Version 2.0
generated by CFD-lab course output (written by Tobias Neckel) 
ASCII

DATASET STRUCTURED_GRID
DIMENSIONS  51 51 1 
POINTS 2601 float

0.000000 0.000000 0
0.020000 0.000000 0
0.040000 0.000000 0
0.060000 0.000000 0
0.080000 0.000000 0
0.100000 0.000000 0
0.120000 0.000000 0
0.140000 0.000000 0
0.160000 0.000000 0
0.180000 0.000000 0
0.200000 0.000000 0
0.220000 0.000000 0
0.240000 0.000000 0
0.260000 0.000000 0
0.280000 0.000000 0
0.300000 0.000000 0
0.320000 0.000000 0
0.340000 0.000000 0
0.360000 0.000000 0
0.380000 0.000000 0
0.400000 0.000000 0
0.420000 0.000000 0
0.440000 0.000000 0
0.460000 0.000000 0
0.480000 0.000000 0
0.500000 0.000000 0
0.520000 0.000000 0
0.540000 0.000000 0
0.560000 0.000000 0
0.580000 0.000000 0
0.600000 0.000000 0
0.620000 0.000000 0
0.640000 0.000000 0
0.660000 0.000000 0
0.680000 0.000000 0
0.700000 0.000000 0
0.720000 0.000000 0
0.740000 0.000000 0
0.760000 0.000000 0
0.780000 0.000000 0
0.800000 0.000000 0
0.820000 0.000000 0
0.840000 0.000000 0
0.860000 0.000000 0
0.880000 0.000000 0
0.900000 0.000000 0
0.920000 0.000000 0
0.940000 0.000000 0
0.960000 0.000000 0
0.980000 0.000000 0
1.000000 0.000000 0
0.000000 0.020000 0
0.020000 0.020000 0
0.040000 0.020000 0
0.060000 0.020000 0
0.080000 0.020000 0
0.100000 0.020000 0
0.120000 0.020000 0
0.140000 0.020000 0
0.160000 0.020000 0
0.180000 0.020000 0
0.200000 0.020000 0
0.220000 0.020000 0
0.240000 0.020000 0
0.260000 0.020000 0
0.280000 0.020000 0
0.300000 0.020000 0
0.320000 0.020000 0
0.340000 0.020000 0
0.360000 0.020000 0
0.380000 0.020000 0
0.400000 0.020000 0
0.420000 0.020000 0
0.440000 0.020000 0
0.460000 0.020000 0
0.480000 0.020000 0
0.500000 0.020000 0
0.520000 0.020000 0
0.540000 0.020000 0
0.560000 0.020000 0
0.580000 0.020000 0
0.600000 0.020000 0
0.620000 0.020000 0
0.640000 0.020000 0
0.660000 0.020000 0
0.680000 0.020000 0
0.700000 0.020000 0
0.720000 0.020000 0
0.740000 0.020000 0
0.760000 0.020000 0
0.780000 0.020000 0
0.800000 0.020000 0
0.820000 0.020000 0
0.840000 0.020000 0
0.860000 0.020000 0
0.880000 0.020000 0
0.900000 0.020000 0
0.920000 0.020000 0
0.940000 0.020000 0
0.960000 0.020000 0
0.980000 0.020000 0
1.000000 0.020000 0
0.000000 0.040000 0
0.020000 0.040000 0
0.040000 0.040000 0
0.060000 0.040000 0
0.080000 0.040000 0
0.100000 0.040000 0
0.120000 0.040000 0
0.140000 0.040000 0
0.160000 0.040000 0
0.180000 0.040000 0
0.200000 0.040000 0
0.220000 0.040000 0
0.240000 0.040000 0
0.260000 0.040000 0
0.280000 0.040000 0
0.300000 0.040000 0
0.320000 0.040000 0
0.340000 0.040000 0
0.360000 0.040000 0
0.380000 0.040000 0
0.400000 0.040000 0
0.420000 0.040000 0
0.440000 0.040000 0
0.460000 0.040000 0
0.480000 0.040000 0
0.500000 0.040000 0
0.520000 0.040000 0
0.540000 0.040000 0
0.560000 0.040000 0
0.580000 0.040000 0
0.600000 0.040000 0
0.620000 0.040000 0
0.640000 0.040000 0
0.660000 0.040000 0
0.680000 0.040000 0
0.700000 0.040000 0
0.720000 0.040000 0
0.740000 0.040000 0
0.760000 0.040000 0
0.780000 0.040000 0
0.800000 0.040000 0
0.820000 0.040000 0
0.840000 0.040000 0
0.860000 0.040000 0
0.880000 0.040000 0
0.900000 0.040000 0
0.920000 0.040000 0
0.940000 0.040000 0
0.960000 0.040000 0
0.980000 0.040000 0
1.000000 0.040000 0
0.000000 0.060000 0
0.020000 0.060000 0
0.040000 0.060000 0
0.060000 0.060000 0
0.080000 0.060000 0
0.100000 0.060000 0
0.120000 0.060000 0
0.140000 0.060000 0
0.160000 0.060000 0
0.180000 0.060000 0
0.200000 0.060000 0
0.220000 0.060000 0
0.240000 0.060000 0
0.260000 0.060000 0
0.280000 0.060000 0
0.300000 0.060000 0
0.320000 0.060000 0
0.340000 0.060000 0
0.360000 0.060000 0
0.380000 0.060000 0
0.400000 0.060000 0
0.420000 0.060000 0
0.440000 0.060000 0
0.460000 0.060000 0
0.480000 0.060000 0
0.500000 0.060000 0
0.520000 0.060000 0
0.540000 0.060000 0
0.560000 0.060000 0
0.580000 0.060000 0
0.600000 0.060000 0
0.620000 0.060000 0
0.640000 0.060000 0
0.660000 0.060000 0
0.680000 0.060000 0
0.700000 0.060000 0
0.720000 0.060000 0
0.740000 0.060000 0
0.760000 0.060000 0
0.780000 0.060000 0
0.800000 0.060000 0
0.820000 0.060000 0
0.840000 0.060000 0
0.860000 0.060000 0
0.880000 0.060000 0
0.900000 0.060000 0
0.920000 0.060000 0
0.940000 0.060000 0
0.960000 0.060000 0
0.980000 0.060000 0
1.000000 0.060000 0
0.000000 0.080000 0
0.020000 0.080000 0
0.040000 0.080000 0
0.060000 0.080000 0
0.080000 0.080000 0
0.100000 0.080000 0
0.120000 0.080000 0
0.140000 0.080000 0
0.160000 0.080000 0
0.180000 0.080000 0
0.200000 0.080000 0
0.220000 0.080000 0
0.240000 0.080000 0
0.260000 0.080000 0
0.280000 0.080000 0
0.300000 0.080000 0
0.320000 0.080000 0
0.340000 0.080000 0
0.360000 0.080000 0
0.380000 0.080000 0
0.400000 0.080000 0
0.420000 0.080000 0
0.440000 0.080000 0
0.460000 0.080000 0
0.480000 0.080000 0
0.500000 0.080000 0
0.520000 0.080000 0
0.540000 0.080000 0
0.560000 0.080000 0
0.580000 0.080000 0
0.600000 0.080000 0
0.620000 0.080000 0
0.640000 0.080000 0
0.660000 0.080000 0
0.680000 0.080000 0
0.700000 0.080000 0
0.720000 0.080000 0
0.740000 0.080000 0
0.760000 0.080000 0
0.780000 0.080000 0
0.800000 0.080000 0
0.820000 0.080000 0
0.840000 0.080000 0
0.860000 0.080000 0
0.880000 0.080000 0
0.900000 0.080000 0
0.920000 0.080000 0
0.940000 0.080000 0
0.960000 0.080000 0
0.980000 0.080000 0
1.000000 0.080000 0
0.000000 0.100000 0
0.020000 0.100000 0
0.040000 0.100000 0
0.060000 0.100000 0
0.080000 0.100000 0
0.100000 0.100000 0
0.120000 0.100000 0
0.140000 0.100000 0
0.160000 0.100000 0
0.180000 0.100000 0
0.200000 0.100000 0
0.220000 0.100000 0
0.240000 0.100000 0
0.260000 0.100000 0
0.280000 0.100000 0
0.300000 0.100000 0
0.320000 0.100000 0
0.340000 0.100000 0
0.360000 0.100000 0
0.380000 0.100000 0
0.400000 0.100000 0
0.420000 0.100000 0
0.440000 0.100000 0
0.460000 0.100000 0
0.480000 0.100000 0
0.500000 0.100000 0
0.520000 0.100000 0
0.540000 0.100000 0
0.560000 0.100000 0
0.580000 0.100000 0
0.600000 0.100000 0
0.620000 0.100000 0
0.640000 0.100000 0
0.660000 0.100000 0
0.680000 0.100000 0
0.700000 0.100000 0
0.720000 0.100000 0
0.740000 0.100000 0
0.760000 0.100000 0
0.780000 0.100000 0
0.800000 0.100000 0
0.820000 0.100000 0
0.840000 0.100000 0
0.860000 0.100000 0
0.880000 0.100000 0
0.900000 0.100000 0
0.920000 0.100000 0
0.940000 0.100000 0
0.960000 0.100000 0
0.980000 0.100000 0
1.000000 0.100000 0
0.000000 0.120000 0
0.020000 0.120000 0
0.040000 0.120000 0
0.060000 0.120000 0
0.080000 0.120000 0
0.100000 0.120000 0
0.120000 0.120000 0
0.140000 0.120000 0
0.160000 0.120000 0
0.180000 0.120000 0
0.200000 0.120000 0
0.220000 0.120000 0
0.240000 0.120000 0
0.260000 0.120000 0
0.280000 0.120000 0
0.300000 0.120000 0
0.320000 0.120000 0
0.340000 0.120000 0
0.360000 0.120000 0
0.380000 0.120000 0
0.400000 0.120000 0
0.420000 0.120000 0
0.440000 0.120000 0
0.460000 0.120000 0
0.480000 0.120000 0
0.500000 0.120000 0
0.520000 0.120000 0
0.540000 0.120000 0
0.560000 0.120000 0
0.580000 0.120000 0
0.600000 0.120000 0
0.620000 0.120000 0
0.640000 0.120000 0
0.660000 0.120000 0
0.680000 0.120000 0
0.700000 0.120000 0
0.720000 0.120000 0
0.740000 0.120000 0
0.760000 0.120000 0
0.780000 0.120000 0
0.800000 0.120000 0
0.820000 0.120000 0
0.840000 0.120000 0
0.860000 0.120000 0
0.880000 0.120000 0
0.900000 0.120000 0
0.920000 0.120000 0
0.940000 0.120000 0
0.960000 0.120000 0
0.980000 0.120000 0
1.000000 0.120000 0
0.000000 0.140000 0
0.020000 0.140000 0
0.040000 0.140000 0
0.060000 0.140000 0
0.080000 0.140000 0
0.100000 0.140000 0
0.120000 0.140000 0
0.140000 0.140000 0
0.160000 0.140000 0
0.180000 0.140000 0
0.200000 0.140000 0
0.220000 0.140000 0
0.240000 0.140000 0
0.260000 0.140000 0
0.280000 0.140000 0
0.300000 0.140000 0
0.320000 0.140000 0
0.340000 0.140000 0
0.360000 0.140000 0
0.380000 0.140000 0
0.400000 0.140000 0
0.420000 0.140000 0
0.440000 0.140000 0
0.460000 0.140000 0
0.480000 0.140000 0
0.500000 0.140000 0
0.520000 0.140000 0
0.540000 0.140000 0
0.560000 0.140000 0
0.580000 0.140000 0
0.600000 0.140000 0
0.620000 0.140000 0
0.640000 0.140000 0
0.660000 0.140000 0
0.680000 0.140000 0
0.700000 0.140000 0
0.720000 0.140000 0
0.740000 0.140000 0
0.760000 0.140000 0
0.780000 0.140000 0
0.800000 0.140000 0
0.820000 0.140000 0
0.840000 0.140000 0
0.860000 0.140000 0
0.880000 0.140000 0
0.900000 0.140000 0
0.920000 0.140000 0
0.940000 0.140000 0
0.960000 0.140000 0
0.980000 0.140000 0
1.000000 0.140000 0
0.000000 0.160000 0
0.020000 0.160000 0
0.040000 0.160000 0
0.060000 0.160000 0
0.080000 0.160000 0
0.100000 0.160000 0
0.120000 0.160000 0
0.140000 0.160000 0
0.160000 0.160000 0
0.180000 0.160000 0
0.200000 0.160000 0
0.220000 0.160000 0
0.240000 0.160000 0
0.260000 0.160000 0
0.280000 0.160000 0
0.300000 0.160000 0
0.320000 0.160000 0
0.340000 0.160000 0
0.360000 0.160000 0
0.380000 0.160000 0
0.400000 0.160000 0
0.420000 0.160000 0
0.440000 0.160000 0
0.460000 0.160000 0
0.480000 0.160000 0
0.500000 0.160000 0
0.520000 0.160000 0
0.540000 0.160000 0
0.560000 0.160000 0
0.580000 0.160000 0
0.600000 0.160000 0
0.620000 0.160000 0
0.640000 0.160000 0
0.660000 0.160000 0
0.680000 0.160000 0
0.700000 0.160000 0
0.720000 0.160000 0
0.740000 0.160000 0
0.760000 0.160000 0
0.780000 0.160000 0
0.800000 0.160000 0
0.820000 0.160000 0
0.840000 0.160000 0
0.860000 0.160000 0
0.880000 0.160000 0
0.900000 0.160000 0
0.920000 0.160000 0
0.940000 0.160000 0
0.960000 0.160000 0
0.980000 0.160000 0
1.000000 0.160000 0
0.000000 0.180000 0
0.020000 0.180000 0
0.040000 0.180000 0
0.060000 0.180000 0
0.080000 0.180000 0
0.100000 0.180000 0
0.120000 0.180000 0
0.140000 0.180000 0
0.160000 0.180000 0
0.180000 0.180000 0
0.200000 0.180000 0
0.220000 0.180000 0
0.240000 0.180000 0
0.260000 0.180000 0
0.280000 0.180000 0
0.300000 0.180000 0
0.320000 0.180000 0
0.340000 0.180000 0
0.360000 0.180000 0
0.380000 0.180000 0
0.400000 0.180000 0
0.420000 0.180000 0
0.440000 0.180000 0
0.460000 0.180000 0
0.480000 0.180000 0
0.500000 0.180000 0
0.520000 0.180000 0
0.540000 0.180000 0
0.560000 0.180000 0
0.580000 0.180000 0
0.600000 0.180000 0
0.620000 0.180000 0
[...]
POINT_DATA 2601 

VECTORS velocity float
0.000000 0.000000 0
0.000004 0.000000 0
0.000006 0.000000 0
0.000006 0.000000 0
0.000005 0.000000 0
0.000003 0.000000 0
-0.000001 0.000000 0
-0.000006 0.000000 0
-0.000014 0.000000 0
-0.000028 0.000000 0
-0.000046 0.000000 0
-0.000070 0.000000 0
-0.000101 0.000000 0
-0.000141 0.000000 0
-0.000161 0.000000 0
-0.000159 0.000000 0
-0.000142 0.000000 0
-0.000091 0.000000 0
-0.000022 0.000000 0
0.000036 0.000000 0
0.000068 0.000000 0
0.000078 0.000000 0
0.000072 0.000000 0
0.000057 0.000000 0
0.000041 0.000000 0
0.000024 0.000000 0
0.000006 0.000000 0
0.000002 0.000000 0
0.000001 0.000000 0
0.000000 0.000000 0
-0.000000 0.000000 0
-0.000000 0.000000 0
-0.000000 0.000000 0
0.000000 0.000000 0
0.000001 0.000000 0
0.000001 0.000000 0
0.000002 0.000000 0
0.000002 0.000000 0
0.000003 0.000000 0
0.000003 0.000000 0
0.000003 0.000000 0
0.000003 0.000000 0
0.000003 0.000000 0
0.000003 0.000000 0
0.000003 0.000000 0
0.000002 0.000000 0
0.000002 0.000000 0
0.000001 0.000000 0
0.000001 0.000000 0
0.000000 0.000000 0
0.000000 0.000000 0
0.000000 -0.000004 0
-0.014563 0.012504 0
-0.030204 0.011806 0
-0.043045 0.009615 0
-0.054115 0.008005 0
-0.063278 0.006327 0
-0.070315 0.004496 0
-0.074845 0.002359 0
-0.076386 -0.000329 0
-0.074399 -0.004037 0
-0.068386 -0.008995 0
-0.057934 -0.015126 0
-0.042704 -0.022313 0
-0.022519 -0.028874 0
0.002362 -0.032734 0
0.031399 -0.032903 0
0.062968 -0.028291 0
0.092495 -0.017717 0
0.114038 -0.002253 0
0.120041 0.012328 0
0.107773 0.021915 0
0.085817 0.026479 0
0.060752 0.026307 0
0.037256 0.022410 0
0.018176 0.016110 0
0.004850 0.008410 0
-0.002287 0.002256 0
-0.004243 -0.000170 0
-0.004221 -0.000603 0
-0.003667 -0.000661 0
-0.002924 -0.000674 0
-0.002087 -0.000660 0
-0.001251 -0.000591 0
-0.000526 -0.000457 0
-0.000016 -0.000269 0
0.000203 -0.000059 0
0.000108 0.000141 0
-0.000256 0.000300 0
-0.000802 0.000389 0
-0.001417 0.000403 0
-0.001999 0.000354 0
-0.002466 0.000264 0
-0.002763 0.000148 0
-0.002855 0.000018 0
-0.002719 -0.000122 0
-0.002358 -0.000255 0
-0.001814 -0.000351 0
-0.001176 -0.000377 0
-0.000567 -0.000302 0
-0.000134 -0.000127 0
0.000000 0.000000 0
0.000000 -0.000009 0
-0.018079 0.030204 0
-0.036906 0.028482 0
-0.052595 0.023912 0
-0.065971 0.020233 0
-0.076832 0.016200 0
-0.084888 0.011567 0
-0.089808 0.006071 0
-0.091365 -0.000447 0
-0.089603 -0.008002 0
-0.084966 -0.016467 0
-0.077800 -0.025684 0
-0.068483 -0.035418 0
-0.057367 -0.045068 0
-0.043480 -0.053919 0
-0.025696 -0.060608 0
-0.003241 -0.061098 0
0.023890 -0.051071 0
0.054944 -0.027547 0
0.083315 0.006264 0
0.084370 0.034224 0
0.073722 0.047020 0
0.057957 0.048560 0
0.041243 0.042576 0
0.026041 0.032407 0
0.013364 0.020463 0
0.003457 0.009092 0
-0.002319 0.001934 0
-0.004266 -0.000576 0
-0.004323 -0.001297 0
-0.003783 -0.001581 0
-0.002969 -0.001673 0
-0.002068 -0.001561 0
-0.001241 -0.001235 0
-0.000646 -0.000728 0
-0.000408 -0.000124 0
-0.000579 0.000459 0
-0.001113 0.000910 0
-0.001891 0.001161 0
-0.002764 0.001197 0
-0.003584 0.001049 0
-0.004226 0.000765 0
-0.004596 0.000389 0
-0.004631 -0.000044 0
-0.004306 -0.000498 0
-0.003660 -0.000905 0
-0.002787 -0.001181 0
-0.001821 -0.001248 0
-0.000925 -0.001042 0
-0.000268 -0.000567 0
0.000000 0.000001 0
0.000000 -0.000012 0
-0.018619 0.049410 0
-0.038230 0.046322 0
-0.054048 0.038681 0
-0.066926 0.032242 0
-0.076851 0.025244 0
-0.083798 0.017472 0
-0.087879 0.008835 0
-0.089410 -0.000535 0
-0.088866 -0.010438 0
-0.086724 -0.020799 0
-0.083273 -0.031609 0
-0.078753 -0.042747 0
-0.073295 -0.053878 0
-0.066753 -0.064405 0
-0.059017 -0.073143 0
-0.049564 -0.077878 0
-0.036011 -0.075901 0
-0.016099 -0.061677 0
0.011628 -0.017099 0
0.041347 0.031506 0
0.045294 0.052892 0
0.042923 0.058788 0
0.037380 0.054327 0
0.029954 0.043986 0
0.021393 0.030993 0
0.012879 0.017939 0
0.005167 0.007554 0
0.000275 0.001401 0
-0.001830 -0.001145 0
-0.002239 -0.002028 0
-0.002048 -0.002375 0
-0.001627 -0.002318 0
-0.001150 -0.001879 0
-0.000788 -0.001103 0
-0.000693 -0.000126 0
-0.000942 0.000847 0
-0.001523 0.001612 0
-0.002333 0.002040 0
-0.003225 0.002096 0
-0.004043 0.001817 0
-0.004644 0.001275 0
-0.004914 0.000554 0
-0.004791 -0.000272 0
-0.004288 -0.001094 0
-0.003500 -0.001774 0
-0.002555 -0.002190 0
-0.001598 -0.002239 0
-0.000775 -0.001855 0
-0.000212 -0.001052 0
0.000000 0.000001 0
0.000000 -0.000014 0
-0.017515 0.068433 0
-0.036787 0.063911 0
-0.051795 0.052608 0
-0.063461 0.043036 0
-0.072205 0.033072 0
-0.078370 0.022595 0
-0.082405 0.011683 0
-0.084796 0.000538 0
-0.085963 -0.010689 0
-0.086248 -0.022059 0
-0.085890 -0.033655 0
-0.085125 -0.045397 0
-0.084176 -0.057069 0
-0.083178 -0.068197 0
-0.082185 -0.077796 0
-0.080890 -0.084104 0
-0.078328 -0.084536 0
-0.073246 -0.075186 0
-0.061588 -0.051182 0
-0.026689 0.000557 0
0.006781 0.045444 0
0.023082 0.056474 0
0.028480 0.055545 0
0.029763 0.048392 0
0.026986 0.037537 0
0.022115 0.025319 0
0.015741 0.014539 0
0.009308 0.006421 0
0.004684 0.001217 0
0.002137 -0.001363 0
0.000863 -0.002285 0
0.000281 -0.002459 0
0.000059 -0.002074 0
-0.000035 -0.001185 0
-0.000204 0.000030 0
-0.000567 0.001289 0
-0.001148 0.002301 0
-0.001881 0.002863 0
-0.002642 0.002908 0
-0.003298 0.002468 0
-0.003719 0.001635 0
-0.003806 0.000537 0
-0.003527 -0.000670 0
-0.002963 -0.001789 0
-0.002239 -0.002638 0
-0.001479 -0.003083 0
-0.000798 -0.003027 0
-0.000297 -0.002427 0
-0.000037 -0.001341 0
0.000000 0.000001 0
0.000000 -0.000013 0
-0.015242 0.086196 0
-0.033534 0.080603 0
-0.047503 0.065355 0
-0.057967 0.052652 0
-0.065881 0.040154 0
-0.071846 0.027672 0
-0.076401 0.015261 0
-0.079955 0.003022 0
-0.082785 -0.008986 0
-0.085130 -0.020872 0
-0.087277 -0.032733 0
-0.089468 -0.044461 0
-0.092004 -0.055825 0
-0.095208 -0.066396 0
-0.099361 -0.075430 0
-0.104440 -0.081734 0
-0.109756 -0.083546 0
-0.113542 -0.078418 0
-0.111926 -0.063656 0
-0.098597 -0.036862 0
-0.056492 0.003121 0
-0.014134 0.037088 0
0.015442 0.047645 0
0.028769 0.045481 0
0.030490 0.038640 0
0.029587 0.029185 0
0.025678 0.020361 0
0.019865 0.012458 0
0.014340 0.006026 0
0.009789 0.001793 0
0.006301 -0.000519 0
0.003848 -0.001514 0
0.002447 -0.001562 0
0.001669 -0.000840 0
0.001115 0.000406 0
0.000580 0.001791 0
0.000004 0.002925 0
-0.000588 0.003534 0
-0.001125 0.003513 0
-0.001525 0.002894 0
-0.001711 0.001784 0
-0.001634 0.000361 0
-0.001319 -0.001115 0
-0.000885 -0.002381 0
-0.000443 -0.003258 0
-0.000071 -0.003631 0
0.000172 -0.003421 0
0.000246 -0.002616 0
0.000149 -0.001349 0
0.000000 0.000002 0
0.000000 -0.000011 0
-0.012145 0.101966 0
-0.029057 0.096172 0
-0.042144 0.077042 0
-0.051683 0.061414 0
-0.059135 0.046951 0
-0.065243 0.033115 0
-0.070513 0.019791 0
-0.075257 0.006922 0
-0.079655 -0.005514 0
-0.083825 -0.017568 0
-0.088155 -0.029318 0
-0.092861 -0.040669 0
-0.098203 -0.051329 0
-0.104461 -0.060841 0
-0.111890 -0.068564 0
-0.120544 -0.073708 0
-0.129984 -0.075434 0
-0.138813 -0.073017 0
-0.144077 -0.066128 0
-0.141157 -0.054876 0
-0.123941 -0.039019 0
-0.086248 -0.015460 0
-0.041729 0.012643 0
-0.002903 0.033345 0
0.025398 0.036719 0
0.036846 0.030130 0
0.037415 0.024261 0
0.031580 0.017759 0
0.025369 0.011292 0
0.019502 0.006676 0
0.014052 0.003656 0
0.009546 0.001396 0
0.006533 0.000106 0
0.004612 0.000146 0
0.003335 0.001118 0
0.002436 0.002400 0
0.001788 0.003469 0
0.001344 0.003992 0
0.001079 0.003845 0
0.000977 0.003053 0
0.001018 0.001744 0
0.001162 0.000145 0
0.001334 -0.001418 0
0.001449 -0.002665 0
0.001453 -0.003452 0
0.001326 -0.003697 0
0.001075 -0.003345 0
0.000715 -0.002405 0
0.000294 -0.001095 0
0.000000 0.000002 0
0.000000 -0.000007 0
-0.008580 0.115253 0
-0.023778 0.110602 0
-0.036301 0.087981 0
-0.045259 0.069643 0
-0.052478 0.053713 0
-0.058833 0.039049 0
-0.064788 0.025274 0
-0.070600 0.012164 0
-0.076417 -0.000418 0
-0.082324 -0.012372 0
-0.088578 -0.023697 0
-0.095464 -0.034414 0
-0.103148 -0.044225 0
-0.111752 -0.052709 0
-0.121290 -0.059348 0
-0.131564 -0.063641 0
-0.142040 -0.065277 0
-0.151730 -0.064324 0
-0.159167 -0.061312 0
-0.162607 -0.056998 0
-0.160200 -0.051789 0
-0.149615 -0.045124 0
-0.125819 -0.035699 0
-0.089786 -0.021646 0
-0.048971 -0.001109 0
-0.015047 0.017168 0
0.011004 0.025628 0
0.027952 0.024504 0
0.032908 0.018104 0
0.030916 0.013110 0
0.024829 0.009437 0
0.017812 0.006005 0
0.012634 0.003372 0
0.009056 0.002357 0
0.006595 0.002582 0
0.004973 0.003338 0
0.004029 0.004018 0
0.003636 0.004243 0
0.003617 0.003880 0
0.003778 0.002955 0
0.003965 0.001599 0
0.004046 0.000045 0
0.003935 -0.001402 0
0.003625 -0.002500 0
0.003132 -0.003136 0
0.002496 -0.003253 0
0.001778 -0.002810 0
0.001041 -0.001835 0
0.000375 -0.000633 0
0.000000 0.000002 0
0.000000 -0.000002 0
-0.004942 0.125744 0
-0.018010 0.123894 0
-0.030273 0.098523 0
-0.039003 0.077591 0
-0.046102 0.060525 0
-0.052672 0.045425 0
-0.059175 0.031558 0
-0.065876 0.018551 0
-0.072946 0.006209 0
-0.080492 -0.005408 0
-0.088440 -0.016177 0
-0.097109 -0.026100 0
-0.106616 -0.035042 0
-0.116936 -0.042698 0
-0.127862 -0.048751 0
-0.138968 -0.052958 0
-0.149593 -0.055269 0
-0.158933 -0.055889 0
-0.166230 -0.055250 0
-0.171005 -0.053843 0
-0.173109 -0.052012 0
-0.172415 -0.049841 0
-0.168236 -0.047186 0
-0.159159 -0.043503 0
-0.142617 -0.038021 0
-0.115279 -0.029844 0
-0.083330 -0.018737 0
-0.051244 -0.004145 0
-0.025458 0.008328 0
-0.006389 0.014755 0
0.006555 0.016760 0
0.013614 0.013591 0
0.014726 0.008862 0
0.013020 0.006185 0
0.010263 0.005201 0
0.007708 0.004967 0
0.006101 0.004806 0
0.005573 0.004404 0
0.005717 0.003703 0
0.006044 0.002705 0
0.006257 0.001476 0
0.006184 0.000174 0
0.005757 -0.000997 0
0.005046 -0.001862 0
0.004135 -0.002323 0
0.003112 -0.002343 0
0.002074 -0.001890 0
0.001119 -0.001002 0
0.000362 -0.000054 0
0.000000 0.000001 0
0.000000 0.000004 0
-0.001670 0.133263 0
-0.012015 0.135933 0
-0.024152 0.108974 0
-0.033019 0.085472 0
-0.040079 0.067382 0
-0.046790 0.052121 0
-0.053699 0.038478 0
-0.061093 0.025935 0
-0.069163 0.014198 0
-0.078006 0.003122 0
-0.087531 -0.007079 0
-0.097619 -0.016237 0
-0.108386 -0.024398 0
-0.119770 -0.031463 0
-0.131470 -0.037316 0
-0.143012 -0.041909 0
-0.153792 -0.045311 0
-0.163186 -0.047688 0
-0.170698 -0.049240 0
-0.176071 -0.050120 0
-0.179307 -0.050378 0
-0.180571 -0.049997 0
-0.180063 -0.048955 0
-0.177911 -0.047264 0
-0.173846 -0.044989 0
-0.167231 -0.042119 0
-0.156859 -0.038408 0
-0.141777 -0.033368 0
-0.120081 -0.026750 0
-0.096214 -0.018903 0
-0.072071 -0.010567 0
-0.050471 -0.002165 0
-0.034097 0.003966 0
-0.022148 0.006820 0
-0.013387 0.007895 0
-0.006944 0.007500 0
-0.002314 0.006153 0
0.000803 0.004627 0
0.002760 0.003408 0
0.003990 0.002415 0
0.004668 0.001459 0
0.004855 0.000545 0
0.004597 -0.000264 0
0.003983 -0.000877 0
0.003179 -0.001201 0
0.002300 -0.001192 0
0.001438 -0.000817 0
0.000694 -0.000123 0
0.000190 0.000485 0
0.000000 0.000001 0
0.000000 0.000008 0
0.000872 0.137759 0
-0.006094 0.146376 0
-0.017920 0.119527 0
-0.027282 0.093518 0
-0.034435 0.074297 0
-0.041244 0.059044 0
-0.048457 0.045860 0
-0.056356 0.034015 0
-0.065099 0.023122 0
-0.074769 0.012960 0
-0.085387 0.003436 0
-0.096662 -0.005244 0
-0.108356 -0.012891 0
-0.120270 -0.019615 0
-0.132247 -0.025509 0
-0.143911 -0.030636 0
-0.154829 -0.035094 0
-0.164577 -0.038983 0
-0.172822 -0.042366 0
-0.179342 -0.045233 0
-0.184015 -0.047511 0
-0.186789 -0.049085 0
-0.187666 -0.049845 0
-0.186725 -0.049720 0
-0.184116 -0.048702 0
-0.180089 -0.046831 0
-0.174846 -0.044191 0
-0.168380 -0.040922 0
-0.160298 -0.037234 0
-0.150140 -0.033255 0
-0.137641 -0.028984 0
-0.122875 -0.024382 0
-0.105821 -0.019460 0
-0.088737 -0.014525 0
-0.072494 -0.010003 0
-0.057800 -0.006106 0
-0.045208 -0.002941 0
-0.034889 -0.000670 0
-0.026569 0.000515 0
-0.019894 0.000798 0
-0.014623 0.000612 0
-0.010561 0.000245 0
-0.007504 -0.000126 0
-0.005271 -0.000444 0
-0.003666 -0.000639 0
-0.002508 -0.000602 0
-0.001650 -0.000284 0
-0.000960 0.000246 0
-0.000358 0.000641 0
0.000000 -0.000001 0
0.000000 0.000012 0
0.002615 0.139356 0
-0.000614 0.154726 0
-0.011567 0.130162 0
-0.021689 0.101987 0
-0.029160 0.081344 0
-0.036066 0.066144 0
-0.043518 0.053591 0
-0.051785 0.042577 0
-0.060952 0.032611 0
-0.071039 0.023409 0
-0.082025 0.014813 0
-0.093829 0.006733 0
-0.106089 -0.000789 0
-0.118435 -0.007572 0
-0.130514 -0.013674 0
-0.142103 -0.019327 0
-0.153052 -0.024645 0
-0.163109 -0.029694 0
-0.172054 -0.034475 0
-0.179681 -0.038926 0
-0.185810 -0.042931 0
-0.190281 -0.046345 0
-0.192952 -0.049019 0
-0.193729 -0.050814 0
-0.192581 -0.051625 0
-0.189570 -0.051389 0
-0.184840 -0.050116 0
-0.178603 -0.047917 0
-0.171125 -0.044990 0
-0.162739 -0.041560 0
-0.153693 -0.037831 0
-0.144122 -0.033985 0
-0.134012 -0.030172 0
-0.123268 -0.026507 0
-0.111972 -0.023042 0
-0.100305 -0.019786 0
-0.088465 -0.016758 0
-0.076688 -0.014012 0
-0.065321 -0.011587 0
-0.054806 -0.009530 0
-0.045327 -0.007874 0
-0.036920 -0.006575 0
-0.029522 -0.005554 0
-0.023040 -0.004716 0
-0.017410 -0.003965 0
-0.012532 -0.003208 0
-0.008305 -0.002365 0
-0.004663 -0.001415 0
-0.001697 -0.000474 0
0.000000 -0.000005 0
0.000000 0.000015 0
0.003750 0.138373 0
0.003908 0.160558 0
-0.005111 0.140602 0
-0.016076 0.111111 0
-0.024192 0.088674 0
-0.031252 0.073402 0
-0.038879 0.061578 0
-0.047394 0.051449 0
-0.056790 0.042377 0
-0.067007 0.034033 0
-0.077969 0.026226 0
-0.089573 0.018821 0
-0.101673 0.011716 0
-0.114002 0.004810 0
-0.126149 -0.001841 0
-0.137841 -0.008098 0
-0.148819 -0.014087 0
-0.159040 -0.019980 0
-0.168460 -0.025794 0
-0.176905 -0.031477 0
-0.184178 -0.036911 0
-0.190071 -0.041943 0
-0.194376 -0.046396 0
-0.196908 -0.050091 0
-0.197525 -0.052860 0
-0.196145 -0.054571 0
-0.192762 -0.055158 0
-0.187461 -0.054637 0
-0.180441 -0.053098 0
-0.172006 -0.050688 0
-0.162513 -0.047600 0
-0.152327 -0.044063 0
-0.141770 -0.040314 0
-0.131102 -0.036564 0
-0.120509 -0.032966 0
-0.110086 -0.029613 0
-0.099857 -0.026557 0
-0.089821 -0.023813 0
-0.079989 -0.021367 0
-0.070369 -0.019197 0
-0.061028 -0.017274 0
-0.052035 -0.015560 0
-0.043456 -0.014006 0
-0.035336 -0.012555 0
-0.027709 -0.011147 0
-0.020598 -0.009708 0
-0.014032 -0.008154 0
-0.008089 -0.006362 0
-0.003057 -0.004022 0
0.000000 -0.000011 0
0.000000 0.000018 0
0.004465 0.135448 0
0.007117 0.163587 0
0.001209 0.150147 0
-0.010265 0.121069 0
-0.019409 0.096520 0
-0.026755 0.080830 0
-0.034493 0.069732 0
-0.043135 0.060487 0
-0.052598 0.052224 0
-0.062752 0.044589 0
-0.073475 0.037379 0
-0.084642 0.030436 0
-0.096120 0.023640 0
-0.107777 0.016905 0
-0.119509 0.010166 0
-0.131069 0.003344 0
-0.142149 -0.003446 0
-0.152573 -0.010053 0
-0.162207 -0.016610 0
-0.171125 -0.023208 0
-0.179180 -0.029764 0
-0.186162 -0.036147 0
-0.191831 -0.042181 0
-0.195942 -0.047665 0
-0.198268 -0.052387 0
-0.198623 -0.056152 0
-0.196888 -0.058800 0
-0.193049 -0.060238 0
-0.187208 -0.060446 0
-0.179579 -0.059487 0
-0.170465 -0.057509 0
-0.160219 -0.054728 0
-0.149214 -0.051398 0
-0.137804 -0.047769 0
-0.126296 -0.044058 0
-0.114920 -0.040437 0
-0.103831 -0.037022 0
-0.093119 -0.033881 0
-0.082828 -0.031039 0
-0.072963 -0.028490 0
-0.063520 -0.026208 0
-0.054487 -0.024147 0
-0.045853 -0.022253 0
-0.037610 -0.020462 0
-0.029753 -0.018703 0
-0.022296 -0.016885 0
-0.015279 -0.014874 0
-0.008829 -0.012389 0
-0.003317 -0.008564 0
0.000000 -0.000010 0
0.000000 0.000020 0
0.004865 0.131255 0
0.009154 0.163814 0
0.006610 0.157985 0
-0.004041 0.131729 0
-0.014598 0.105163 0
-0.022480 0.088486 0
-0.030287 0.077959 0
-0.038936 0.069555 0
-0.048327 0.061994 0
-0.058273 0.054911 0
-0.068622 0.048117 0
-0.079245 0.041466 0
-0.090034 0.034851 0
-0.100900 0.028199 0
-0.111772 0.021451 0
-0.122585 0.014543 0
-0.133297 0.007417 0
-0.143672 0.000077 0
-0.153473 -0.007242 0
-0.162560 -0.014503 0
-0.170991 -0.021873 0
-0.178662 -0.029292 0
-0.185347 -0.036616 0
-0.190784 -0.043654 0
-0.194701 -0.050179 0
-0.196832 -0.055951 0
-0.196955 -0.060731 0
-0.194930 -0.064317 0
-0.190726 -0.066568 0
-0.184439 -0.067431 0
-0.176287 -0.066960 0
-0.166591 -0.065314 0
-0.155741 -0.062729 0
-0.144143 -0.059482 0
-0.132178 -0.055850 0
-0.120159 -0.052079 0
-0.108324 -0.048358 0
-0.096831 -0.044816 0
-0.085775 -0.041523 0
-0.075203 -0.038504 0
-0.065131 -0.035750 0
-0.055556 -0.033226 0
-0.046466 -0.030883 0
-0.037849 -0.028655 0
-0.029697 -0.026460 0
-0.022024 -0.024182 0
-0.014882 -0.021620 0
-0.008419 -0.018324 0
-0.003036 -0.012851 0
0.000000 -0.000009 0
0.000000 0.000021 0
0.005038 0.126294 0
0.010311 0.161842 0
0.010499 0.163342 0
0.002373 0.142277 0
-0.009486 0.114959 0
-0.018288 0.096519 0
-0.026182 0.086189 0
-0.034728 0.078527 0
-0.043928 0.071561 0
-0.053563 0.064885 0
-0.063459 0.058352 0
-0.073488 0.051849 0
-0.083556 0.045295 0
-0.093599 0.038643 0
-0.103576 0.031851 0
-0.113468 0.024869 0
-0.123269 0.017641 0
-0.132967 0.010123 0
-0.142496 0.002279 0
-0.151558 -0.005689 0
-0.160019 -0.013662 0
-0.167931 -0.021792 0
-0.175203 -0.030059 0
-0.181599 -0.038310 0
-0.186847 -0.046339 0
-0.190648 -0.053897 0
-0.192701 -0.060702 0
-0.192743 -0.066467 0
-0.190595 -0.070936 0
-0.186194 -0.073926 0
-0.179621 -0.075356 0
-0.171099 -0.075274 0
-0.160975 -0.073846 0
-0.149674 -0.071331 0
-0.137636 -0.068042 0
-0.125269 -0.064291 0
-0.112905 -0.060350 0
-0.100791 -0.056430 0
-0.089087 -0.052667 0
-0.077884 -0.049135 0
-0.067223 -0.045855 0
-0.057117 -0.042811 0
-0.047557 -0.039959 0
-0.038536 -0.037231 0
-0.030050 -0.034527 0
-0.022119 -0.031700 0
-0.014806 -0.028479 0
-0.008273 -0.024235 0
-0.002932 -0.016983 0
0.000000 -0.000008 0
0.000000 0.000022 0
0.005050 0.120944 0
0.010820 0.158353 0
0.012988 0.165923 0
0.008004 0.151714 0
-0.003761 0.125824 0
-0.013965 0.105182 0
-0.022087 0.094399 0
-0.030452 0.087301 0
-0.039367 0.080829 0
-0.048618 0.074442 0
-0.058019 0.068042 0
-0.067438 0.061564 0
-0.076787 0.054962 0
-0.086012 0.048219 0
-0.095086 0.041321 0
-0.104010 0.034237 0
-0.112803 0.026916 0
-0.121490 0.019304 0
-0.130091 0.011350 0
-0.138615 0.003020 0
-0.146826 -0.005500 0
-0.154567 -0.014107 0
-0.161951 -0.022948 0
-0.168850 -0.032009 0
-0.175039 -0.041130 0
-0.180233 -0.050097 0
-0.184097 -0.058636 0
-0.186278 -0.066423 0
-0.186452 -0.073116 0
-0.184384 -0.078405 0
-0.179969 -0.082056 0
-0.173272 -0.083960 0
-0.164529 -0.084154 0
-0.154115 -0.082821 0
-0.142493 -0.080255 0
-0.130144 -0.076810 0
-0.117502 -0.072836 0
-0.104919 -0.068634 0
-0.092647 -0.064431 0
-0.080848 -0.060368 0
-0.069608 -0.056517 0
-0.058967 -0.052892 0
-0.048936 -0.049464 0
-0.039510 -0.046163 0
-0.030693 -0.042878 0
-0.022504 -0.039426 0
-0.015010 -0.035466 0
-0.008370 -0.030197 0
-0.002984 -0.021125 0
0.000000 -0.000008 0
0.000000 0.000023 0
0.004948 0.115474 0
0.010877 0.153904 0
0.014371 0.166158 0
0.012165 0.159026 0
0.002390 0.136928 0
-0.009266 0.114845 0
-0.017900 0.102676 0
-0.026068 0.095808 0
-0.034624 0.089727 0
-0.043440 0.083537 0
-0.052323 0.077172 0
-0.061137 0.070618 0
-0.069790 0.063869 0
-0.078226 0.056941 0
-0.086417 0.049850 0
-0.094367 0.042587 0
-0.102102 0.035122 0
-0.109673 0.027411 0
-0.117144 0.019404 0
-0.124585 0.011047 0
-0.132047 0.002290 0
-0.139348 -0.006666 0
-0.146352 -0.015776 0
-0.153252 -0.025222 0
-0.159894 -0.034956 0
-0.166056 -0.044839 0
-0.171419 -0.054658 0
-0.175591 -0.064112 0
-0.178145 -0.072830 0
-0.178678 -0.080409 0
-0.176883 -0.086468 0
-0.172611 -0.090714 0
-0.165914 -0.093003 0
-0.157045 -0.093367 0
-0.146421 -0.092014 0
-0.134555 -0.089282 0
-0.121974 -0.085575 0
-0.109144 -0.081284 0
-0.096433 -0.076738 0
-0.084098 -0.072174 0
-0.072298 -0.067735 0
-0.061117 -0.063484 0
-0.050594 -0.059416 0
-0.040741 -0.055473 0
-0.031568 -0.051533 0
-0.023096 -0.047384 0
-0.015388 -0.042613 0
-0.008600 -0.036261 0
-0.003108 -0.025353 0
0.000000 -0.000008 0
0.000000 0.000023 0
0.004769 0.110067 0
0.010635 0.148931 0
0.014929 0.164636 0
0.014911 0.163695 0
0.008010 0.147255 0
-0.003920 0.125472 0
-0.013478 0.111201 0
-0.021536 0.104026 0
-0.029690 0.098202 0
-0.038032 0.092142 0
-0.046385 0.085739 0
-0.054606 0.079031 0
-0.062596 0.072051 0
-0.070288 0.064847 0
-0.077644 0.057463 0
-0.084659 0.049922 0
-0.091356 0.042223 0
-0.097790 0.034346 0
-0.104045 0.026262 0