# vtk DataFile Version 2.0
generated by CFD-lab course output (written by Tobias Neckel) 
ASCII

DATASET STRUCTURED_GRID
DIMENSIONS  51 51 1 
POINTS 2601 float

0.000000 0.000000 0
0.020000 0.000000 0
0.040000 0.000000 0
0.060000 0.000000 0
0.080000 0.000000 0
0.100000 0.000000 0
0.120000 0.000000 0
0.140000 0.000000 0
0.160000 0.000000 0
0.180000 0.000000 0
0.200000 0.000000 0
0.220000 0.000000 0
0.240000 0.000000 0
0.260000 0.000000 0
0.280000 0.000000 0
0.300000 0.000000 0
0.320000 0.000000 0
0.340000 0.000000 0
0.360000 0.000000 0
0.380000 0.000000 0
0.400000 0.000000 0
0.420000 0.000000 0
0.440000 0.000000 0
0.460000 0.000000 0
0.480000 0.000000 0
0.500000 0.000000 0
0.520000 0.000000 0
0.540000 0.000000 0
0.560000 0.000000 0
0.580000 0.000000 0
0.600000 0.000000 0
0.620000 0.000000 0
0.640000 0.000000 0
0.660000 0.000000 0
0.680000 0.000000 0
0.700000 0.000000 0
0.720000 0.000000 0
0.740000 0.000000 0
0.760000 0.000000 0
0.780000 0.000000 0
0.800000 0.000000 0
0.820000 0.000000 0
0.840000 0.000000 0
0.860000 0.000000 0
0.880000 0.000000 0
0.900000 0.000000 0
0.920000 0.000000 0
0.940000 0.000000 0
0.960000 0.000000 0
0.980000 0.000000 0
1.000000 0.000000 0
0.000000 0.020000 0
0.020000 0.020000 0
0.040000 0.020000 0
0.060000 0.020000 0
0.080000 0.020000 0
0.100000 0.020000 0
0.120000 0.020000 0
0.140000 0.020000 0
0.160000 0.020000 0
0.180000 0.020000 0
0.200000 0.020000 0
0.220000 0.020000 0
0.240000 0.020000 0
0.260000 0.020000 0
0.280000 0.020000 0
0.300000 0.020000 0
0.320000 0.020000 0
0.340000 0.020000 0
0.360000 0.020000 0
0.380000 0.020000 0
0.400000 0.020000 0
0.420000 0.020000 0
0.440000 0.020000 0
0.460000 0.020000 0
0.480000 0.020000 0
0.500000 0.020000 0
0.520000 0.020000 0
0.540000 0.020000 0
0.560000 0.020000 0
0.580000 0.020000 0
0.600000 0.020000 0
0.620000 0.020000 0
0.640000 0.020000 0
0.660000 0.020000 0
0.680000 0.020000 0
0.700000 0.020000 0
0.720000 0.020000 0
0.740000 0.020000 0
0.760000 0.020000 0
0.780000 0.020000 0
0.800000 0.020000 0
0.820000 0.020000 0
0.840000 0.020000 0
0.860000 0.020000 0
0.880000 0.020000 0
0.900000 0.020000 0
0.920000 0.020000 0
0.940000 0.020000 0
0.960000 0.020000 0
0.980000 0.020000 0
1.000000 0.020000 0
0.000000 0.040000 0
0.020000 0.040000 0
0.040000 0.040000 0
0.060000 0.040000 0
0.080000 0.040000 0
0.100000 0.040000 0
0.120000 0.040000 0
0.140000 0.040000 0
0.160000 0.040000 0
0.180000 0.040000 0
0.200000 0.040000 0
0.220000 0.040000 0
0.240000 0.040000 0
0.260000 0.040000 0
0.280000 0.040000 0
0.300000 0.040000 0
0.320000 0.040000 0
0.340000 0.040000 0
0.360000 0.040000 0
0.380000 0.040000 0
0.400000 0.040000 0
0.420000 0.040000 0
0.440000 0.040000 0
0.460000 0.040000 0
0.480000 0.040000 0
0.500000 0.040000 0
0.520000 0.040000 0
0.540000 0.040000 0
0.560000 0.040000 0
0.580000 0.040000 0
0.600000 0.040000 0
0.620000 0.040000 0
0.640000 0.040000 0
0.660000 0.040000 0
0.680000 0.040000 0
0.700000 0.040000 0
0.720000 0.040000 0
0.740000 0.040000 0
0.760000 0.040000 0
0.780000 0.040000 0
0.800000 0.040000 0
0.820000 0.040000 0
0.840000 0.040000 0
0.860000 0.040000 0
0.880000 0.040000 0
0.900000 0.040000 0
0.920000 0.040000 0
0.940000 0.040000 0
0.960000 0.040000 0
0.980000 0.040000 0
1.000000 0.040000 0
0.000000 0.060000 0
0.020000 0.060000 0
0.040000 0.060000 0
0.060000 0.060000 0
0.080000 0.060000 0
0.100000 0.060000 0
0.120000 0.060000 0
0.140000 0.060000 0
0.160000 0.060000 0
0.180000 0.060000 0
0.200000 0.060000 0
0.220000 0.060000 0
0.240000 0.060000 0
0.260000 0.060000 0
0.280000 0.060000 0
0.300000 0.060000 0
0.320000 0.060000 0
0.340000 0.060000 0
0.360000 0.060000 0
0.380000 0.060000 0
0.400000 0.060000 0
0.420000 0.060000 0
0.440000 0.060000 0
0.460000 0.060000 0
0.480000 0.060000 0
0.500000 0.060000 0
0.520000 0.060000 0
0.540000 0.060000 0
0.560000 0.060000 0
0.580000 0.060000 0
0.600000 0.060000 0
0.620000 0.060000 0
0.640000 0.060000 0
0.660000 0.060000 0
0.680000 0.060000 0
0.700000 0.060000 0
0.720000 0.060000 0
0.740000 0.060000 0
0.760000 0.060000 0
0.780000 0.060000 0
0.800000 0.060000 0
0.820000 0.060000 0
0.840000 0.060000 0
0.860000 0.060000 0
0.880000 0.060000 0
0.900000 0.060000 0
0.920000 0.060000 0
0.940000 0.060000 0
0.960000 0.060000 0
0.980000 0.060000 0
1.000000 0.060000 0
0.000000 0.080000 0
0.020000 0.080000 0
0.040000 0.080000 0
0.060000 0.080000 0
0.080000 0.080000 0
0.100000 0.080000 0
0.120000 0.080000 0
0.140000 0.080000 0
0.160000 0.080000 0
0.180000 0.080000 0
0.200000 0.080000 0
0.220000 0.080000 0
0.240000 0.080000 0
0.260000 0.080000 0
0.280000 0.080000 0
0.300000 0.080000 0
0.320000 0.080000 0
0.340000 0.080000 0
0.360000 0.080000 0
0.380000 0.080000 0
0.400000 0.080000 0
0.420000 0.080000 0
0.440000 0.080000 0
0.460000 0.080000 0
0.480000 0.080000 0
0.500000 0.080000 0
0.520000 0.080000 0
0.540000 0.080000 0
0.560000 0.080000 0
0.580000 0.080000 0
0.600000 0.080000 0
0.620000 0.080000 0
0.640000 0.080000 0
0.660000 0.080000 0
0.680000 0.080000 0
0.700000 0.080000 0
0.720000 0.080000 0
0.740000 0.080000 0
0.760000 0.080000 0
0.780000 0.080000 0
0.800000 0.080000 0
0.820000 0.080000 0
0.840000 0.080000 0
0.860000 0.080000 0
0.880000 0.080000 0
0.900000 0.080000 0
0.920000 0.080000 0
0.940000 0.080000 0
0.960000 0.080000 0
0.980000 0.080000 0
1.000000 0.080000 0
0.000000 0.100000 0
0.020000 0.100000 0
0.040000 0.100000 0
0.060000 0.100000 0
0.080000 0.100000 0
0.100000 0.100000 0
0.120000 0.100000 0
0.140000 0.100000 0
0.160000 0.100000 0
0.180000 0.100000 0
0.200000 0.100000 0
0.220000 0.100000 0
0.240000 0.100000 0
0.260000 0.100000 0
0.280000 0.100000 0
0.300000 0.100000 0
0.320000 0.100000 0
0.340000 0.100000 0
0.360000 0.100000 0
0.380000 0.100000 0
0.400000 0.100000 0
0.420000 0.100000 0
0.440000 0.100000 0
0.460000 0.100000 0
0.480000 0.100000 0
0.500000 0.100000 0
0.520000 0.100000 0
0.540000 0.100000 0
0.560000 0.100000 0
0.580000 0.100000 0
0.600000 0.100000 0
0.620000 0.100000 0
0.640000 0.100000 0
0.660000 0.100000 0
0.680000 0.100000 0
0.700000 0.100000 0
0.720000 0.100000 0
0.740000 0.100000 0
0.760000 0.100000 0
0.780000 0.100000 0
0.800000 0.100000 0
0.820000 0.100000 0
0.840000 0.100000 0
0.860000 0.100000 0
0.880000 0.100000 0
0.900000 0.100000 0
0.920000 0.100000 0
0.940000 0.100000 0
0.960000 0.100000 0
0.980000 0.100000 0
1.000000 0.100000 0
0.000000 0.120000 0
0.020000 0.120000 0
0.040000 0.120000 0
0.060000 0.120000 0
0.080000 0.120000 0
0.100000 0.120000 0
0.120000 0.120000 0
0.140000 0.120000 0
0.160000 0.120000 0
0.180000 0.120000 0
0.200000 0.120000 0
0.220000 0.120000 0
0.240000 0.120000 0
0.260000 0.120000 0
0.280000 0.120000 0
0.300000 0.120000 0
0.320000 0.120000 0
0.340000 0.120000 0
0.360000 0.120000 0
0.380000 0.120000 0
0.400000 0.120000 0
0.420000 0.120000 0
0.440000 0.120000 0
0.460000 0.120000 0
0.480000 0.120000 0
0.500000 0.120000 0
0.520000 0.120000 0
0.540000 0.120000 0
0.560000 0.120000 0
0.580000 0.120000 0
0.600000 0.120000 0
0.620000 0.120000 0
0.640000 0.120000 0
0.660000 0.120000 0
0.680000 0.120000 0
0.700000 0.120000 0
0.720000 0.120000 0
0.740000 0.120000 0
0.760000 0.120000 0
0.780000 0.120000 0
0.800000 0.120000 0
0.820000 0.120000 0
0.840000 0.120000 0
0.860000 0.120000 0
0.880000 0.120000 0
0.900000 0.120000 0
0.920000 0.120000 0
0.940000 0.120000 0
0.960000 0.120000 0
0.980000 0.120000 0
1.000000 0.120000 0
0.000000 0.140000 0
0.020000 0.140000 0
0.040000 0.140000 0
0.060000 0.140000 0
0.080000 0.140000 0
0.100000 0.140000 0
0.120000 0.140000 0
0.140000 0.140000 0
0.160000 0.140000 0
0.180000 0.140000 0
0.200000 0.140000 0
0.220000 0.140000 0
0.240000 0.140000 0
0.260000 0.140000 0
0.280000 0.140000 0
0.300000 0.140000 0
0.320000 0.140000 0
0.340000 0.140000 0
0.360000 0.140000 0
0.380000 0.140000 0
0.400000 0.140000 0
0.420000 0.140000 0
0.440000 0.140000 0
0.460000 0.140000 0
0.480000 0.140000 0
0.500000 0.140000 0
0.520000 0.140000 0
0.540000 0.140000 0
0.560000 0.140000 0
0.580000 0.140000 0
0.600000 0.140000 0
0.620000 0.140000 0
0.640000 0.140000 0
0.660000 0.140000 0
0.680000 0.140000 0
0.700000 0.140000 0
0.720000 0.140000 0
0.740000 0.140000 0
0.760000 0.140000 0
0.780000 0.140000 0
0.800000 0.140000 0
0.820000 0.140000 0
0.840000 0.140000 0
0.860000 0.140000 0
0.880000 0.140000 0
0.900000 0.140000 0
0.920000 0.140000 0
0.940000 0.140000 0
0.960000 0.140000 0
0.980000 0.140000 0
1.000000 0.140000 0
0.000000 0.160000 0
0.020000 0.160000 0
0.040000 0.160000 0
0.060000 0.160000 0
0.080000 0.160000 0
0.100000 0.160000 0
0.120000 0.160000 0
0.140000 0.160000 0
0.160000 0.160000 0
0.180000 0.160000 0
0.200000 0.160000 0
0.220000 0.160000 0
0.240000 0.160000 0
0.260000 0.160000 0
0.280000 0.160000 0
0.300000 0.160000 0
0.320000 0.160000 0
0.340000 0.160000 0
0.360000 0.160000 0
0.380000 0.160000 0
0.400000 0.160000 0
0.420000 0.160000 0
0.440000 0.160000 0
0.460000 0.160000 0
0.480000 0.160000 0
0.500000 0.160000 0
0.520000 0.160000 0
0.540000 0.160000 0
0.560000 0.160000 0
0.580000 0.160000 0
0.600000 0.160000 0
0.620000 0.160000 0
0.640000 0.160000 0
0.660000 0.160000 0
0.680000 0.160000 0
0.700000 0.160000 0
0.720000 0.160000 0
0.740000 0.160000 0
0.760000 0.160000 0
0.780000 0.160000 0
0.800000 0.160000 0
0.820000 0.160000 0
0.840000 0.160000 0
0.860000 0.160000 0
0.880000 0.160000 0
0.900000 0.160000 0
0.920000 0.160000 0
0.940000 0.160000 0
0.960000 0.160000 0
0.980000 0.160000 0
1.000000 0.160000 0
0.000000 0.180000 0
0.020000 0.180000 0
0.040000 0.180000 0
0.060000 0.180000 0
0.080000 0.180000 0
0.100000 0.180000 0
0.120000 0.180000 0
0.140000 0.180000 0
0.160000 0.180000 0
0.180000 0.180000 0
0.200000 0.180000 0
0.220000 0.180000 0
0.240000 0.180000 0
0.260000 0.180000 0
0.280000 0.180000 0
0.300000 0.180000 0
0.320000 0.180000 0
0.340000 0.180000 0
0.360000 0.180000 0
0.380000 0.180000 0
0.400000 0.180000 0
0.420000 0.180000 0
0.440000 0.180000 0
0.460000 0.180000 0
0.480000 0.180000 0
0.500000 0.180000 0
0.520000 0.180000 0
0.540000 0.180000 0
0.560000 0.180000 0
0.580000 0.180000 0
0.600000 0.180000 0
0.620000 0.180000 0
[...]
POINT_DATA 2601 

VECTORS velocity float
0.000000 0.000000 0
0.000001 0.000000 0
0.000005 0.000000 0
0.000011 0.000000 0
0.000018 0.000000 0
0.000026 0.000000 0
0.000036 0.000000 0
0.000048 0.000000 0
0.000053 0.000000 0
0.000056 0.000000 0
0.000054 0.000000 0
0.000048 0.000000 0
0.000039 0.000000 0
0.000027 0.000000 0
0.000013 0.000000 0
-0.000000 0.000000 0
-0.000012 0.000000 0
-0.000020 0.000000 0
-0.000028 0.000000 0
-0.000034 0.000000 0
-0.000041 0.000000 0
-0.000047 0.000000 0
-0.000053 0.000000 0
-0.000057 0.000000 0
-0.000060 0.000000 0
-0.000059 0.000000 0
-0.000056 0.000000 0
-0.000051 0.000000 0
-0.000026 0.000000 0
-0.000001 0.000000 0
0.000011 0.000000 0
0.000012 0.000000 0
0.000011 0.000000 0
0.000010 0.000000 0
0.000009 0.000000 0
0.000007 0.000000 0
0.000006 0.000000 0
0.000004 0.000000 0
0.000003 0.000000 0
0.000001 0.000000 0
0.000000 0.000000 0
-0.000001 0.000000 0
-0.000001 0.000000 0
-0.000002 0.000000 0
-0.000002 0.000000 0
-0.000002 0.000000 0
-0.000002 0.000000 0
-0.000001 0.000000 0
-0.000001 0.000000 0
-0.000000 0.000000 0
0.000000 0.000000 0
0.000000 -0.000001 0
-0.011997 0.008429 0
-0.021323 0.004712 0
-0.025499 0.000761 0
-0.025982 -0.002423 0
-0.022943 -0.005951 0
-0.016353 -0.009893 0
-0.006256 -0.013428 0
0.007022 -0.015506 0
0.023046 -0.016333 0
0.040425 -0.016010 0
0.058017 -0.014260 0
0.074587 -0.011359 0
0.088955 -0.007688 0
0.100139 -0.003756 0
0.107461 -0.000176 0
0.110604 0.002625 0
0.109648 0.004675 0
0.105326 0.006216 0
0.098381 0.007441 0
0.089395 0.008465 0
0.078832 0.009340 0
0.067090 0.010068 0
0.054541 0.010604 0
0.041565 0.010884 0
0.028555 0.010848 0
0.015902 0.010497 0
0.003932 0.009219 0
-0.006528 0.005736 0
-0.011992 0.001696 0
-0.013593 -0.000194 0
-0.014019 -0.000405 0
-0.014311 -0.000222 0
-0.014590 -0.000068 0
-0.014847 0.000025 0
-0.015059 0.000063 0
-0.015196 0.000052 0
-0.015226 0.000002 0
-0.015114 -0.000083 0
-0.014824 -0.000201 0
-0.014325 -0.000347 0
-0.013591 -0.000516 0
-0.012603 -0.000702 0
-0.011351 -0.000891 0
-0.009842 -0.001070 0
-0.008104 -0.001217 0
-0.006195 -0.001305 0
-0.004212 -0.001293 0
-0.002310 -0.001113 0
-0.000752 -0.000658 0
0.000000 -0.000000 0
0.000000 -0.000001 0
-0.014547 0.021322 0
-0.026798 0.013501 0
-0.033580 0.004658 0
-0.036212 -0.002557 0
-0.035247 -0.009629 0
-0.031156 -0.016687 0
-0.024252 -0.023375 0
-0.014315 -0.029302 0
-0.001010 -0.033403 0
0.015140 -0.034970 0
0.033530 -0.034162 0
0.052942 -0.030937 0
0.072163 -0.025551 0
0.089868 -0.018505 0
0.104763 -0.010464 0
0.115587 -0.002187 0
0.121432 0.005277 0
0.121739 0.011266 0
0.117246 0.015930 0
0.108829 0.019547 0
0.097392 0.022304 0
0.083804 0.024290 0
0.068875 0.025524 0
0.053330 0.025986 0
0.037798 0.025663 0
0.022809 0.024622 0
0.008794 0.022429 0
-0.004275 0.015923 0
-0.013286 0.007065 0
-0.017359 0.002026 0
-0.019276 0.000718 0
-0.020577 0.000571 0
-0.021571 0.000535 0
-0.022319 0.000468 0
-0.022837 0.000349 0
-0.023122 0.000168 0
-0.023155 -0.000082 0
-0.022914 -0.000403 0
-0.022372 -0.000789 0
-0.021509 -0.001233 0
-0.020307 -0.001723 0
-0.018757 -0.002241 0
-0.016858 -0.002761 0
-0.014625 -0.003247 0
-0.012097 -0.003647 0
-0.009345 -0.003893 0
-0.006486 -0.003885 0
-0.003710 -0.003460 0
-0.001333 -0.002311 0
0.000000 -0.000001 0
0.000000 -0.000001 0
-0.014328 0.035226 0
-0.027584 0.023745 0
-0.035564 0.010176 0
-0.039717 -0.000757 0
-0.040607 -0.011008 0
-0.038727 -0.020888 0
-0.034211 -0.030269 0
-0.027099 -0.038748 0
-0.017546 -0.045786 0
-0.005069 -0.050549 0
0.010248 -0.052062 0
0.027791 -0.049993 0
0.046365 -0.044614 0
0.064740 -0.036355 0
0.081699 -0.025896 0
0.096120 -0.014045 0
0.106941 -0.001477 0
0.112906 0.010401 0
0.113280 0.020350 0
0.108516 0.028318 0
0.099480 0.034365 0
0.087240 0.038584 0
0.072905 0.041078 0
0.057500 0.041961 0
0.041895 0.041368 0
0.026787 0.039501 0
0.012740 0.036302 0
-0.000210 0.027817 0
-0.011528 0.014779 0
-0.017526 0.005795 0
-0.020421 0.002813 0
-0.022298 0.002073 0
-0.023727 0.001675 0
-0.024800 0.001291 0
-0.025540 0.000865 0
-0.025945 0.000370 0
-0.026003 -0.000206 0
-0.025705 -0.000867 0
-0.025039 -0.001606 0
-0.023999 -0.002412 0
-0.022582 -0.003268 0
-0.020791 -0.004151 0
-0.018636 -0.005023 0
-0.016140 -0.005831 0
-0.013346 -0.006498 0
-0.010328 -0.006916 0
-0.007203 -0.006928 0
-0.004157 -0.006267 0
-0.001517 -0.004368 0
0.000000 -0.000003 0
0.000000 -0.000000 0
-0.012855 0.048905 0
-0.026441 0.034736 0
-0.035206 0.016791 0
-0.040413 0.002486 0
-0.042739 -0.010619 0
-0.042570 -0.023083 0
-0.040029 -0.035003 0
-0.035110 -0.045967 0
-0.027852 -0.055431 0
-0.018257 -0.062763 0
-0.006229 -0.067022 0
0.008362 -0.067054 0
0.024938 -0.062500 0
0.042181 -0.053840 0
0.058806 -0.041845 0
0.073767 -0.027429 0
0.085896 -0.011510 0
0.094663 0.004926 0
0.098571 0.020319 0
0.097559 0.033346 0
0.091974 0.043579 0
0.082643 0.050865 0
0.070648 0.055264 0
0.057087 0.056995 0
0.042944 0.056375 0
0.029032 0.053777 0
0.016028 0.049426 0
0.004261 0.040191 0
-0.008076 0.024380 0
-0.016090 0.010918 0
-0.019954 0.005490 0
-0.022170 0.003877 0
-0.023793 0.003037 0
-0.025020 0.002281 0
-0.025884 0.001494 0
-0.026382 0.000630 0
-0.026502 -0.000323 0
-0.026228 -0.001367 0
-0.025545 -0.002495 0
-0.024447 -0.003690 0
-0.022935 -0.004931 0
-0.021024 -0.006187 0
-0.018740 -0.007412 0
-0.016125 -0.008536 0
-0.013239 -0.009459 0
-0.010168 -0.010037 0
-0.007033 -0.010056 0
-0.004016 -0.009146 0
-0.001435 -0.006468 0
0.000000 -0.000004 0
0.000000 0.000001 0
-0.010618 0.061666 0
-0.024105 0.046095 0
-0.033434 0.024148 0
-0.039298 0.006777 0
-0.042671 -0.008850 0
-0.043808 -0.023598 0
-0.042965 -0.037729 0
-0.040122 -0.050924 0
-0.035238 -0.062639 0
-0.028250 -0.072171 0
-0.019204 -0.078680 0
-0.008029 -0.081160 0
0.005363 -0.078434 0
0.020509 -0.070223 0
0.035864 -0.057483 0
0.050526 -0.041136 0
0.062918 -0.022374 0
0.072389 -0.002275 0
0.078276 0.017453 0
0.080033 0.034915 0
0.077717 0.049281 0
0.071883 0.059909 0
0.063307 0.066634 0
0.052846 0.069665 0
0.041381 0.069422 0
0.029716 0.066416 0
0.018558 0.061073 0
0.008376 0.051920 0
-0.003002 0.035131 0
-0.013178 0.017673 0
-0.018422 0.008891 0
-0.021084 0.005912 0
-0.022871 0.004524 0
-0.024223 0.003382 0
-0.025213 0.002228 0
-0.025839 0.000988 0
-0.026071 -0.000361 0
-0.025873 -0.001824 0
-0.025206 -0.003387 0
-0.024052 -0.005022 0
-0.022417 -0.006691 0
-0.020335 -0.008346 0
-0.017871 -0.009923 0
-0.015111 -0.011333 0
-0.012161 -0.012455 0
-0.009139 -0.013122 0
-0.006171 -0.013079 0
-0.003415 -0.011864 0
-0.001152 -0.008384 0
0.000000 -0.000005 0
0.000000 0.000003 0
-0.007873 0.073009 0
-0.020847 0.057551 0
-0.030656 0.031985 0
-0.036888 0.011723 0
-0.040889 -0.006109 0
-0.042972 -0.022789 0
-0.043519 -0.038689 0
-0.042551 -0.053693 0
-0.040015 -0.067302 0
-0.035791 -0.078797 0
-0.029778 -0.087243 0
-0.021947 -0.091622 0
-0.012299 -0.091039 0
-0.000727 -0.084342 0
0.012180 -0.071863 0
0.025519 -0.054483 0
0.037486 -0.033373 0
0.047446 -0.010433 0
0.055064 0.012674 0
0.058497 0.033905 0
0.058783 0.051729 0
0.056471 0.065274 0
0.051833 0.074300 0
0.045261 0.078919 0
0.037352 0.079505 0
0.028751 0.076600 0
0.020097 0.070765 0
0.011871 0.061751 0
0.002907 0.045933 0
-0.008450 0.026337 0
-0.015592 0.013396 0
-0.019094 0.008325 0
-0.021159 0.006175 0
-0.022676 0.004623 0
-0.023819 0.003109 0
-0.024595 0.001488 0
-0.024950 -0.000290 0
-0.024813 -0.002233 0
-0.024116 -0.004316 0
-0.022831 -0.006479 0
-0.020976 -0.008647 0
-0.018629 -0.010733 0
-0.015913 -0.012637 0
-0.012989 -0.014245 0
-0.010031 -0.015430 0
-0.007196 -0.016027 0
-0.004608 -0.015781 0
-0.002373 -0.014165 0
-0.000691 -0.009883 0
0.000000 -0.000004 0
0.000000 0.000004 0
-0.004851 0.082512 0
-0.016789 0.068877 0
-0.027087 0.040188 0
-0.033547 0.017010 0
-0.037838 -0.002766 0
-0.040586 -0.020968 0
-0.042220 -0.038149 0
-0.042865 -0.054427 0
-0.042523 -0.069398 0
-0.041084 -0.082408 0
-0.038357 -0.092525 0
-0.034122 -0.098640 0
-0.028227 -0.099655 0
-0.020721 -0.094703 0
-0.011351 -0.083730 0
-0.001035 -0.066443 0
0.009620 -0.044302 0
0.019879 -0.019854 0
0.029099 0.006401 0
0.033679 0.031196 0
0.036504 0.051307 0
0.037777 0.066858 0
0.037253 0.077843 0
0.034912 0.084146 0
0.031055 0.085932 0
0.026072 0.083670 0
0.020456 0.077952 0
0.014633 0.069110 0
0.008251 0.055452 0
-0.001588 0.036171 0
-0.010970 0.019535 0
-0.015881 0.011479 0
-0.018467 0.008106 0
-0.020213 0.006041 0
-0.021506 0.004146 0
-0.022401 0.002119 0
-0.022826 -0.000142 0
-0.022678 -0.002657 0
-0.021863 -0.005370 0
-0.020361 -0.008162 0
-0.018228 -0.010893 0
-0.015600 -0.013410 0
-0.012675 -0.015562 0
-0.009689 -0.017214 0
-0.006875 -0.018248 0
-0.004431 -0.018545 0
-0.002461 -0.017903 0
-0.001000 -0.015781 0
-0.000125 -0.010757 0
0.000000 -0.000001 0
0.000000 0.000005 0
-0.001862 0.089797 0
-0.012019 0.079786 0
-0.022829 0.048743 0
-0.029599 0.022475 0
-0.033978 0.000930 0
-0.037168 -0.018406 0
-0.039602 -0.036409 0
-0.041551 -0.053389 0
-0.043124 -0.069084 0
-0.044288 -0.082963 0
-0.044859 -0.094205 0
-0.044508 -0.101753 0
-0.042820 -0.104441 0
-0.039422 -0.101219 0
-0.034114 -0.091551 0
-0.027313 -0.075455 0
-0.018872 -0.054287 0
-0.010032 -0.029912 0
-0.001775 -0.001127 0
0.005870 0.026499 0
0.012166 0.047630 0
0.017278 0.064525 0
0.020727 0.077165 0
0.022508 0.085117 0
0.022812 0.088344 0
0.021706 0.087198 0
0.019477 0.082204 0
0.016421 0.073957 0
0.012494 0.062153 0
0.005923 0.045558 0
-0.003691 0.027689 0
-0.010818 0.015822 0
-0.014366 0.010507 0
-0.016471 0.007663 0
-0.017898 0.005298 0
-0.018838 0.002808 0
-0.019229 -0.000012 0
-0.018959 -0.003196 0
-0.017937 -0.006634 0
-0.016189 -0.010114 0
-0.013839 -0.013408 0
-0.011082 -0.016286 0
-0.008169 -0.018548 0
-0.005376 -0.020045 0
-0.002964 -0.020688 0
-0.001144 -0.020441 0
-0.000000 -0.019212 0
0.000516 -0.016502 0
0.000472 -0.010883 0
0.000000 0.000003 0
0.000000 0.000005 0
0.000707 0.094530 0
-0.006711 0.089844 0
-0.017904 0.057768 0
-0.025340 0.028160 0
-0.029764 0.004804 0
-0.033189 -0.015344 0
-0.036166 -0.033766 0
-0.039117 -0.050905 0
-0.042268 -0.066662 0
-0.045704 -0.080672 0
-0.049312 -0.092305 0
-0.052754 -0.100680 0
-0.055471 -0.104742 0
-0.056758 -0.103410 0
-0.055929 -0.095840 0
-0.052647 -0.081685 0
-0.046911 -0.061583 0
-0.039801 -0.036953 0
-0.032330 -0.009502 0
-0.022242 0.017255 0
-0.013091 0.039900 0
-0.004507 0.058296 0
0.002848 0.072612 0
0.008788 0.082060 0
0.013134 0.086733 0
0.015826 0.087006 0
0.017097 0.083237 0
0.017049 0.076092 0
0.015703 0.065949 0
0.012238 0.052355 0
0.005319 0.036276 0
-0.002680 0.022155 0
-0.008089 0.013760 0
-0.010926 0.009573 0
-0.012521 0.006513 0
-0.013446 0.003450 0
-0.013695 -0.000021 0
-0.013202 -0.003949 0
-0.011948 -0.008139 0
-0.010053 -0.012259 0
-0.007718 -0.016000 0
-0.005165 -0.019080 0
-0.002648 -0.021268 0
-0.000425 -0.022419 0
0.001268 -0.022480 0
0.002258 -0.021509 0
0.002474 -0.019563 0
0.002005 -0.016254 0
0.001046 -0.010241 0
0.000000 0.000008 0
0.000000 0.000004 0
0.002596 0.096506 0
-0.001168 0.098396 0
-0.012271 0.067373 0
-0.020897 0.034335 0
-0.025509 0.008779 0
-0.028993 -0.012004 0
-0.032314 -0.030481 0
-0.036018 -0.047287 0
-0.040430 -0.062497 0
-0.045744 -0.075920 0
-0.051942 -0.087155 0
-0.058747 -0.095594 0
-0.065578 -0.100438 0
-0.071564 -0.100762 0
-0.075645 -0.095662 0
-0.076803 -0.084474 0
-0.074325 -0.067133 0
-0.068324 -0.044494 0
-0.059487 -0.018687 0
-0.048653 0.007260 0
-0.037844 0.029895 0
-0.026876 0.048586 0
-0.016044 0.063868 0
-0.006142 0.074831 0
0.002173 0.081307 0
0.008717 0.083234 0
0.013388 0.080980 0
0.016421 0.075351 0
0.017802 0.066965 0
0.017163 0.055942 0
0.013653 0.042607 0
0.007629 0.029231 0
0.001519 0.018752 0
-0.002433 0.012094 0
-0.004639 0.007818 0
-0.005693 0.003982 0
-0.005818 -0.000256 0
-0.005127 -0.004943 0
-0.003792 -0.009783 0
-0.002037 -0.014345 0
-0.000111 -0.018295 0
0.001770 -0.021356 0
0.003427 -0.023289 0
0.004699 -0.023962 0
0.005421 -0.023370 0
0.005454 -0.021647 0
0.004724 -0.018959 0
0.003323 -0.015074 0
0.001527 -0.008878 0
0.000000 0.000013 0
0.000000 0.000003 0
0.003873 0.095698 0
0.003862 0.104710 0
-0.005769 0.077498 0
-0.016166 0.041398 0
-0.021440 0.012900 0
-0.024808 -0.008539 0
-0.028335 -0.026741 0
-0.032611 -0.042789 0
-0.038032 -0.056936 0
-0.044857 -0.069161 0
-0.053130 -0.079302 0
-0.062643 -0.087045 0
-0.072883 -0.091926 0
-0.082994 -0.093344 0
-0.091781 -0.090601 0
-0.097813 -0.083005 0
-0.099651 -0.070063 0
-0.096281 -0.051791 0
-0.087569 -0.029173 0
-0.074866 -0.004388 0
-0.060685 0.018123 0
-0.048067 0.036496 0
-0.034950 0.051878 0
-0.022039 0.063843 0
-0.010126 0.071873 0
0.000222 0.075790 0
0.008464 0.075533 0
0.014520 0.071678 0
0.018708 0.065207 0
0.020820 0.056505 0
0.020500 0.045811 0
0.017626 0.034289 0
0.013335 0.023821 0
0.009293 0.015731 0
0.006558 0.009773 0
0.005162 0.004630 0
0.004790 -0.000587 0
0.005250 -0.005976 0
0.006185 -0.011230 0
0.007305 -0.015941 0
0.008363 -0.019806 0
0.009167 -0.022617 0
0.009624 -0.024198 0
0.009676 -0.024414 0
0.009245 -0.023235 0
0.008224 -0.020813 0
0.006547 -0.017432 0
0.004308 -0.013057 0
0.001837 -0.006918 0
0.000000 0.000017 0
0.000000 0.000002 0
0.004706 0.092644 0
0.007596 0.108038 0
0.001476 0.087401 0
-0.010777 0.050007 0
-0.017707 0.017421 0
-0.020877 -0.005109 0
-0.024436 -0.022678 0
-0.029139 -0.037590 0
-0.035388 -0.050251 0
-0.043436 -0.060823 0
-0.053311 -0.069370 0
-0.064819 -0.075841 0
-0.077526 -0.080086 0
-0.090703 -0.081865 0
-0.103282 -0.080844 0
-0.113850 -0.076604 0
-0.120720 -0.068666 0
-0.122172 -0.056576 0
-0.116881 -0.040101 0
-0.104643 -0.019625 0
-0.087015 0.003095 0
-0.068891 0.022850 0
-0.053075 0.037842 0
-0.037953 0.050006 0
-0.023413 0.059045 0
-0.009893 0.064646 0
0.002059 0.066682 0
0.011403 0.065106 0
0.018467 0.060666 0
0.023274 0.054151 0
0.025949 0.045801 0
0.026380 0.036395 0
0.024922 0.027085 0
0.022515 0.018871 0
0.020246 0.011949 0
0.018645 0.005749 0
0.017676 -0.000344 0
0.017304 -0.006337 0
0.017258 -0.011838 0
0.017271 -0.016523 0
0.017094 -0.020158 0
0.016555 -0.022617 0
0.015601 -0.023798 0
0.014249 -0.023584 0
0.012506 -0.021919 0
0.010345 -0.018948 0
0.007749 -0.015042 0
0.004823 -0.010364 0
0.001918 -0.004570 0
0.000000 0.000020 0
0.000000 0.000001 0
0.005192 0.088102 0
0.010001 0.107940 0
0.008045 0.095871 0
-0.003796 0.060581 0
-0.014083 0.022999 0
-0.017443 -0.001810 0
-0.020774 -0.018480 0
-0.025746 -0.031837 0
-0.032679 -0.042640 0
-0.041742 -0.051238 0
-0.052853 -0.057919 0
-0.065743 -0.062831 0
-0.079995 -0.066043 0
-0.095012 -0.067588 0
-0.109978 -0.067455 0
-0.123813 -0.065568 0
-0.135158 -0.061741 0
-0.142401 -0.055631 0
-0.143795 -0.046701 0
-0.137743 -0.034254 0
-0.123364 -0.017630 0
-0.101560 0.002556 0
-0.077667 0.020939 0
-0.055583 0.034182 0
-0.036881 0.043815 0
-0.020733 0.050318 0
-0.006047 0.054237 0
0.006505 0.055271 0
0.016601 0.053336 0
0.024247 0.049023 0
0.029984 0.042706 0
0.033752 0.035316 0
0.035431 0.027686 0
0.035367 0.020407 0
0.034272 0.013643 0
0.032828 0.007200 0
0.031353 0.000754 0
0.029923 -0.005558 0
0.028597 -0.011197 0
0.027213 -0.015776 0
0.025539 -0.019091 0
0.023431 -0.021125 0
0.020896 -0.021891 0
0.018022 -0.021318 0
0.014903 -0.019331 0
0.011607 -0.016056 0
0.008195 -0.011911 0
0.004798 -0.007226 0
0.001747 -0.002095 0
0.000000 0.000020 0
0.000000 -0.000000 0
0.005423 0.082642 0
0.011393 0.105185 0
0.012697 0.101198 0
0.004457 0.072134 0
-0.009619 0.031068 0
-0.014700 0.001582 0
-0.017501 -0.014375 0
-0.022509 -0.025685 0
-0.029981 -0.034255 0
-0.039895 -0.040649 0
-0.051967 -0.045370 0
-0.065786 -0.048699 0
-0.080884 -0.050817 0
-0.096732 -0.051882 0
-0.112722 -0.052044 0
-0.128156 -0.051424 0
-0.142212 -0.050078 0
-0.153899 -0.047939 0
-0.161998 -0.044758 0
-0.165010 -0.040056 0
-0.161144 -0.033088 0
-0.148492 -0.022846 0
-0.126292 -0.008135 0
-0.098600 0.009221 0
-0.068848 0.024195 0
-0.040702 0.033811 0
-0.017118 0.039444 0
0.002147 0.042459 0
0.016305 0.042924 0
0.025275 0.040768 0
0.032898 0.036297 0
0.039505 0.030948 0
0.044074 0.025470 0
0.046351 0.020030 0
0.046668 0.014489 0
0.045748 0.008669 0
0.044073 0.002561 0
0.041798 -0.003581 0
0.039219 -0.009128 0
0.036288 -0.013466 0
0.032891 -0.016376 0
0.029042 -0.017974 0
0.024867 -0.018389 0
0.020509 -0.017590 0
0.016110 -0.015503 0
0.011825 -0.012241 0
0.007815 -0.008234 0
0.004235 -0.003916 0
0.001341 0.000228 0
0.000000 0.000018 0
0.000000 -0.000001 0
0.005466 0.076708 0
0.012015 0.100666 0
0.015523 0.102807 0
0.011613 0.082897 0
-0.002708 0.042156 0
-0.012464 0.006071 0
-0.014743 -0.010670 0
-0.019465 -0.019357 0
-0.027297 -0.025254 0
-0.037902 -0.029253 0
-0.050711 -0.032028 0
-0.065133 -0.033913 0
-0.080627 -0.035098 0
-0.096681 -0.035751 0
-0.112812 -0.036030 0
-0.128561 -0.036078 0
-0.143495 -0.035999 0
-0.157167 -0.035845 0
-0.169052 -0.035590 0
-0.178457 -0.035109 0
-0.184403 -0.034147 0
-0.185513 -0.032295 0
-0.179895 -0.028952 0
-0.165132 -0.023261 0
-0.141396 -0.014084 0
-0.111606 -0.001412 0
-0.079189 0.011390 0
-0.046422 0.021848 0
-0.015836 0.030208 0
0.010757 0.032430 0
0.031164 0.028476 0
0.045138 0.024140 0
0.054041 0.020840 0
0.058232 0.017813 0
0.058598 0.014247 0
0.057081 0.009795 0
0.054597 0.004704 0
0.051441 -0.000704 0
0.047596 -0.005687 0
0.042985 -0.009449 0
0.037745 -0.011845 0
0.032144 -0.013101 0
0.026481 -0.013359 0
0.020930 -0.012561 0
0.015625 -0.010648 0
0.010752 -0.007761 0
0.006548 -0.004320 0
0.003162 -0.000752 0
0.000795 0.002140 0
0.000000 0.000014 0
0.000000 -0.000002 0
0.005368 0.070627 0
0.012072 0.095128 0
0.016890 0.101600 0
0.016346 0.090365 0
0.005809 0.055144 0
-0.009333 0.013617 0
-0.012507 -0.007374 0
-0.016622 -0.013131 0
-0.024588 -0.015819 0
-0.035711 -0.017235 0
-0.049045 -0.018138 0
-0.063801 -0.018784 0
-0.079392 -0.019270 0
-0.095331 -0.019698 0
-0.111210 -0.020164 0
-0.126689 -0.020741 0
-0.141505 -0.021472 0
-0.155458 -0.022382 0
-0.168367 -0.023468 0
-0.180035 -0.024704 0
-0.190194 -0.026032 0
-0.198442 -0.027354 0
-0.204153 -0.028515 0
-0.206378 -0.029278 0
-0.203709 -0.029331 0
-0.194160 -0.028395 0
-0.176446 -0.025739 0
-0.152173 -0.020893 0
-0.122705 -0.014255 0
-0.089509 -0.006232 0
-0.058177 0.001916 0
-0.030487 0.008071 0
-0.006393 0.012376 0
0.013973 0.015473 0
0.030223 0.015639 0
0.041415 0.012671 0
0.047509 0.008201 0
0.048826 0.003420 0
0.046465 -0.000673 0
0.041797 -0.003614 0
0.035885 -0.005535 0
0.029421 -0.006711 0
0.023042 -0.007174 0
0.017238 -0.006734 0
0.012113 -0.005325 0
0.007691 -0.003165 0
0.004095 -0.000644 0
0.001574 0.001837 0
0.000197 0.003390 0
0.000000 0.000009 0
0.000000 -0.000003 0
0.005162 0.064636 0
0.011724 0.089143 0
0.017161 0.098533 0
0.018905 0.093978 0
0.012856 0.067835 0
-0.003471 0.024388 0
-0.010686 -0.003381 0
-0.014023 -0.007276 0
-0.021787 -0.006166 0
-0.033235 -0.004796 0
-0.046792 -0.003937 0
-0.061525 -0.003566 0
-0.076880 -0.003568 0
-0.092450 -0.003933 0
-0.107916 -0.004672 0
-0.123024 -0.005782 0
-0.137565 -0.007229 0
-0.151354 -0.008982 0
-0.164262 -0.011013 0
-0.176188 -0.013281 0
-0.187070 -0.015739 0
-0.196836 -0.018335 0
-0.205347 -0.021016 0
-0.212363 -0.023705 0
-0.217545 -0.026301 0
-0.220439 -0.028674 0
-0.220576 -0.030597 0
-0.216966 -0.031893 0
-0.208848 -0.032456 0
-0.195788 -0.032098 0
-0.177597 -0.030546 0
-0.155256 -0.027645 0
-0.130805 -0.023621 0
-0.105110 -0.018803 0
-0.079540 -0.013195 0
-0.056617 -0.007491 0
-0.037641 -0.002707 0
-0.023163 0.000339 0
-0.013014 0.001342 0
-0.006415 0.001132 0
-0.002452 0.000531 0
-0.000381 -0.000258 0
0.000358 -0.001175 0
0.000280 -0.001632 0
-0.000158 -0.001101 0
-0.000625 0.000257 0
-0.000936 0.001796 0
-0.000996 0.003146 0
-0.000617 0.003714 0
0.000000 0.000003 0
0.000000 -0.000004 0
0.004873 0.058903 0
0.011082 0.083129 0
0.016640 0.094418 0
0.019733 0.094670 0
0.017150 0.077521 0
0.004177 0.037160 0
-0.008798 0.003178 0
-0.012182 -0.002030 0
-0.019767 0.003393 0
-0.031017 0.007770 0
-0.044191 0.010152 0
-0.058340 0.011303 0
-0.072960 0.011655 0
-0.087720 0.011339 0
-0.102389 0.010411 0
-0.116798 0.008909 0
-0.130817 0.006858 0
-0.144324 0.004315 0
-0.157219 0.001366 0
-0.169376 -0.001894 0
-0.180638 -0.005383 0
-0.190822 -0.009077 0
-0.199789 -0.012987 0
-0.207487 -0.017080 0
-0.213786 -0.021255 0