# vtk DataFile Version 2.0
generated by CFD-lab course output (written by Tobias Neckel) 
ASCII

DATASET STRUCTURED_GRID
DIMENSIONS  51 51 1 
POINTS 2601 float

0.000000 0.000000 0
0.020000 0.000000 0
0.040000 0.000000 0
0.060000 0.000000 0
0.080000 0.000000 0
0.100000 0.000000 0
0.120000 0.000000 0
0.140000 0.000000 0
0.160000 0.000000 0
0.180000 0.000000 0
0.200000 0.000000 0
0.220000 0.000000 0
0.240000 0.000000 0
0.260000 0.000000 0
0.280000 0.000000 0
0.300000 0.000000 0
0.320000 0.000000 0
0.340000 0.000000 0
0.360000 0.000000 0
0.380000 0.000000 0
0.400000 0.000000 0
0.420000 0.000000 0
0.440000 0.000000 0
0.460000 0.000000 0
0.480000 0.000000 0
0.500000 0.000000 0
0.520000 0.000000 0
0.540000 0.000000 0
0.560000 0.000000 0
0.580000 0.000000 0
0.600000 0.000000 0
0.620000 0.000000 0
0.640000 0.000000 0
0.660000 0.000000 0
0.680000 0.000000 0
0.700000 0.000000 0
0.720000 0.000000 0
0.740000 0.000000 0
0.760000 0.000000 0
0.780000 0.000000 0
0.800000 0.000000 0
0.820000 0.000000 0
0.840000 0.000000 0
0.860000 0.000000 0
0.880000 0.000000 0
0.900000 0.000000 0
0.920000 0.000000 0
0.940000 0.000000 0
0.960000 0.000000 0
0.980000 0.000000 0
1.000000 0.000000 0
0.000000 0.020000 0
0.020000 0.020000 0
0.040000 0.020000 0
0.060000 0.020000 0
0.080000 0.020000 0
0.100000 0.020000 0
0.120000 0.020000 0
0.140000 0.020000 0
0.160000 0.020000 0
0.180000 0.020000 0
0.200000 0.020000 0
0.220000 0.020000 0
0.240000 0.020000 0
0.260000 0.020000 0
0.280000 0.020000 0
0.300000 0.020000 0
0.320000 0.020000 0
0.340000 0.020000 0
0.360000 0.020000 0
0.380000 0.020000 0
0.400000 0.020000 0
0.420000 0.020000 0
0.440000 0.020000 0
0.460000 0.020000 0
0.480000 0.020000 0
0.500000 0.020000 0
0.520000 0.020000 0
0.540000 0.020000 0
0.560000 0.020000 0
0.580000 0.020000 0
0.600000 0.020000 0
0.620000 0.020000 0
0.640000 0.020000 0
0.660000 0.020000 0
0.680000 0.020000 0
0.700000 0.020000 0
0.720000 0.020000 0
0.740000 0.020000 0
0.760000 0.020000 0
0.780000 0.020000 0
0.800000 0.020000 0
0.820000 0.020000 0
0.840000 0.020000 0
0.860000 0.020000 0
0.880000 0.020000 0
0.900000 0.020000 0
0.920000 0.020000 0
0.940000 0.020000 0
0.960000 0.020000 0
0.980000 0.020000 0
1.000000 0.020000 0
0.000000 0.040000 0
0.020000 0.040000 0
0.040000 0.040000 0
0.060000 0.040000 0
0.080000 0.040000 0
0.100000 0.040000 0
0.120000 0.040000 0
0.140000 0.040000 0
0.160000 0.040000 0
0.180000 0.040000 0
0.200000 0.040000 0
0.220000 0.040000 0
0.240000 0.040000 0
0.260000 0.040000 0
0.280000 0.040000 0
0.300000 0.040000 0
0.320000 0.040000 0
0.340000 0.040000 0
0.360000 0.040000 0
0.380000 0.040000 0
0.400000 0.040000 0
0.420000 0.040000 0
0.440000 0.040000 0
0.460000 0.040000 0
0.480000 0.040000 0
0.500000 0.040000 0
0.520000 0.040000 0
0.540000 0.040000 0
0.560000 0.040000 0
0.580000 0.040000 0
0.600000 0.040000 0
0.620000 0.040000 0
0.640000 0.040000 0
0.660000 0.040000 0
0.680000 0.040000 0
0.700000 0.040000 0
0.720000 0.040000 0
0.740000 0.040000 0
0.760000 0.040000 0
0.780000 0.040000 0
0.800000 0.040000 0
0.820000 0.040000 0
0.840000 0.040000 0
0.860000 0.040000 0
0.880000 0.040000 0
0.900000 0.040000 0
0.920000 0.040000 0
0.940000 0.040000 0
0.960000 0.040000 0
0.980000 0.040000 0
1.000000 0.040000 0
0.000000 0.060000 0
0.020000 0.060000 0
0.040000 0.060000 0
0.060000 0.060000 0
0.080000 0.060000 0
0.100000 0.060000 0
0.120000 0.060000 0
0.140000 0.060000 0
0.160000 0.060000 0
0.180000 0.060000 0
0.200000 0.060000 0
0.220000 0.060000 0
0.240000 0.060000 0
0.260000 0.060000 0
0.280000 0.060000 0
0.300000 0.060000 0
0.320000 0.060000 0
0.340000 0.060000 0
0.360000 0.060000 0
0.380000 0.060000 0
0.400000 0.060000 0
0.420000 0.060000 0
0.440000 0.060000 0
0.460000 0.060000 0
0.480000 0.060000 0
0.500000 0.060000 0
0.520000 0.060000 0
0.540000 0.060000 0
0.560000 0.060000 0
0.580000 0.060000 0
0.600000 0.060000 0
0.620000 0.060000 0
0.640000 0.060000 0
0.660000 0.060000 0
0.680000 0.060000 0
0.700000 0.060000 0
0.720000 0.060000 0
0.740000 0.060000 0
0.760000 0.060000 0
0.780000 0.060000 0
0.800000 0.060000 0
0.820000 0.060000 0
0.840000 0.060000 0
0.860000 0.060000 0
0.880000 0.060000 0
0.900000 0.060000 0
0.920000 0.060000 0
0.940000 0.060000 0
0.960000 0.060000 0
0.980000 0.060000 0
1.000000 0.060000 0
0.000000 0.080000 0
0.020000 0.080000 0
0.040000 0.080000 0
0.060000 0.080000 0
0.080000 0.080000 0
0.100000 0.080000 0
0.120000 0.080000 0
0.140000 0.080000 0
0.160000 0.080000 0
0.180000 0.080000 0
0.200000 0.080000 0
0.220000 0.080000 0
0.240000 0.080000 0
0.260000 0.080000 0
0.280000 0.080000 0
0.300000 0.080000 0
0.320000 0.080000 0
0.340000 0.080000 0
0.360000 0.080000 0
0.380000 0.080000 0
0.400000 0.080000 0
0.420000 0.080000 0
0.440000 0.080000 0
0.460000 0.080000 0
0.480000 0.080000 0
0.500000 0.080000 0
0.520000 0.080000 0
0.540000 0.080000 0
0.560000 0.080000 0
0.580000 0.080000 0
0.600000 0.080000 0
0.620000 0.080000 0
0.640000 0.080000 0
0.660000 0.080000 0
0.680000 0.080000 0
0.700000 0.080000 0
0.720000 0.080000 0
0.740000 0.080000 0
0.760000 0.080000 0
0.780000 0.080000 0
0.800000 0.080000 0
0.820000 0.080000 0
0.840000 0.080000 0
0.860000 0.080000 0
0.880000 0.080000 0
0.900000 0.080000 0
0.920000 0.080000 0
0.940000 0.080000 0
0.960000 0.080000 0
0.980000 0.080000 0
1.000000 0.080000 0
0.000000 0.100000 0
0.020000 0.100000 0
0.040000 0.100000 0
0.060000 0.100000 0
0.080000 0.100000 0
0.100000 0.100000 0
0.120000 0.100000 0
0.140000 0.100000 0
0.160000 0.100000 0
0.180000 0.100000 0
0.200000 0.100000 0
0.220000 0.100000 0
0.240000 0.100000 0
0.260000 0.100000 0
0.280000 0.100000 0
0.300000 0.100000 0
0.320000 0.100000 0
0.340000 0.100000 0
0.360000 0.100000 0
0.380000 0.100000 0
0.400000 0.100000 0
0.420000 0.100000 0
0.440000 0.100000 0
0.460000 0.100000 0
0.480000 0.100000 0
0.500000 0.100000 0
0.520000 0.100000 0
0.540000 0.100000 0
0.560000 0.100000 0
0.580000 0.100000 0
0.600000 0.100000 0
0.620000 0.100000 0
0.640000 0.100000 0
0.660000 0.100000 0
0.680000 0.100000 0
0.700000 0.100000 0
0.720000 0.100000 0
0.740000 0.100000 0
0.760000 0.100000 0
0.780000 0.100000 0
0.800000 0.100000 0
0.820000 0.100000 0
0.840000 0.100000 0
0.860000 0.100000 0
0.880000 0.100000 0
0.900000 0.100000 0
0.920000 0.100000 0
0.940000 0.100000 0
0.960000 0.100000 0
0.980000 0.100000 0
1.000000 0.100000 0
0.000000 0.120000 0
0.020000 0.120000 0
0.040000 0.120000 0
0.060000 0.120000 0
0.080000 0.120000 0
0.100000 0.120000 0
0.120000 0.120000 0
0.140000 0.120000 0
0.160000 0.120000 0
0.180000 0.120000 0
0.200000 0.120000 0
0.220000 0.120000 0
0.240000 0.120000 0
0.260000 0.120000 0
0.280000 0.120000 0
0.300000 0.120000 0
0.320000 0.120000 0
0.340000 0.120000 0
0.360000 0.120000 0
0.380000 0.120000 0
0.400000 0.120000 0
0.420000 0.120000 0
0.440000 0.120000 0
0.460000 0.120000 0
0.480000 0.120000 0
0.500000 0.120000 0
0.520000 0.120000 0
0.540000 0.120000 0
0.560000 0.120000 0
0.580000 0.120000 0
0.600000 0.120000 0
0.620000 0.120000 0
0.640000 0.120000 0
0.660000 0.120000 0
0.680000 0.120000 0
0.700000 0.120000 0
0.720000 0.120000 0
0.740000 0.120000 0
0.760000 0.120000 0
0.780000 0.120000 0
0.800000 0.120000 0
0.820000 0.120000 0
0.840000 0.120000 0
0.860000 0.120000 0
0.880000 0.120000 0
0.900000 0.120000 0
0.920000 0.120000 0
0.940000 0.120000 0
0.960000 0.120000 0
0.980000 0.120000 0
1.000000 0.120000 0
0.000000 0.140000 0
0.020000 0.140000 0
0.040000 0.140000 0
0.060000 0.140000 0
0.080000 0.140000 0
0.100000 0.140000 0
0.120000 0.140000 0
0.140000 0.140000 0
0.160000 0.140000 0
0.180000 0.140000 0
0.200000 0.140000 0
0.220000 0.140000 0
0.240000 0.140000 0
0.260000 0.140000 0
0.280000 0.140000 0
0.300000 0.140000 0
0.320000 0.140000 0
0.340000 0.140000 0
0.360000 0.140000 0
0.380000 0.140000 0
0.400000 0.140000 0
0.420000 0.140000 0
0.440000 0.140000 0
0.460000 0.140000 0
0.480000 0.140000 0
0.500000 0.140000 0
0.520000 0.140000 0
0.540000 0.140000 0
0.560000 0.140000 0
0.580000 0.140000 0
0.600000 0.140000 0
0.620000 0.140000 0
0.640000 0.140000 0
0.660000 0.140000 0
0.680000 0.140000 0
0.700000 0.140000 0
0.720000 0.140000 0
0.740000 0.140000 0
0.760000 0.140000 0
0.780000 0.140000 0
0.800000 0.140000 0
0.820000 0.140000 0
0.840000 0.140000 0
0.860000 0.140000 0
0.880000 0.140000 0
0.900000 0.140000 0
0.920000 0.140000 0
0.940000 0.140000 0
0.960000 0.140000 0
0.980000 0.140000 0
1.000000 0.140000 0
0.000000 0.160000 0
0.020000 0.160000 0
0.040000 0.160000 0
0.060000 0.160000 0
0.080000 0.160000 0
0.100000 0.160000 0
0.120000 0.160000 0
0.140000 0.160000 0
0.160000 0.160000 0
0.180000 0.160000 0
0.200000 0.160000 0
0.220000 0.160000 0
0.240000 0.160000 0
0.260000 0.160000 0
0.280000 0.160000 0
0.300000 0.160000 0
0.320000 0.160000 0
0.340000 0.160000 0
0.360000 0.160000 0
0.380000 0.160000 0
0.400000 0.160000 0
0.420000 0.160000 0
0.440000 0.160000 0
0.460000 0.160000 0
0.480000 0.160000 0
0.500000 0.160000 0
0.520000 0.160000 0
0.540000 0.160000 0
0.560000 0.160000 0
0.580000 0.160000 0
0.600000 0.160000 0
0.620000 0.160000 0
0.640000 0.160000 0
0.660000 0.160000 0
0.680000 0.160000 0
0.700000 0.160000 0
0.720000 0.160000 0
0.740000 0.160000 0
0.760000 0.160000 0
0.780000 0.160000 0
0.800000 0.160000 0
0.820000 0.160000 0
0.840000 0.160000 0
0.860000 0.160000 0
0.880000 0.160000 0
0.900000 0.160000 0
0.920000 0.160000 0
0.940000 0.160000 0
0.960000 0.160000 0
0.980000 0.160000 0
1.000000 0.160000 0
0.000000 0.180000 0
0.020000 0.180000 0
0.040000 0.180000 0
0.060000 0.180000 0
0.080000 0.180000 0
0.100000 0.180000 0
0.120000 0.180000 0
0.140000 0.180000 0
0.160000 0.180000 0
0.180000 0.180000 0
0.200000 0.180000 0
0.220000 0.180000 0
0.240000 0.180000 0
0.260000 0.180000 0
0.280000 0.180000 0
0.300000 0.180000 0
0.320000 0.180000 0
0.340000 0.180000 0
0.360000 0.180000 0
0.380000 0.180000 0
0.400000 0.180000 0
0.420000 0.180000 0
0.440000 0.180000 0
0.460000 0.180000 0
0.480000 0.180000 0
0.500000 0.180000 0
0.520000 0.180000 0
0.540000 0.180000 0
0.560000 0.180000 0
0.580000 0.180000 0
0.600000 0.180000 0
0.620000 0.180000 0
[...]
POINT_DATA 2601 

VECTORS velocity float
0.000000 0.000000 0
0.000000 0.000000 0
-0.000000 0.000000 0
-0.000000 0.000000 0
-0.000000 0.000000 0
-0.000001 0.000000 0
-0.000001 0.000000 0
-0.000002 0.000000 0
-0.000002 0.000000 0
-0.000003 0.000000 0
-0.000003 0.000000 0
-0.000003 0.000000 0
-0.000004 0.000000 0
-0.000004 0.000000 0
-0.000004 0.000000 0
-0.000003 0.000000 0
-0.000003 0.000000 0
-0.000003 0.000000 0
-0.000002 0.000000 0
-0.000001 0.000000 0
-0.000000 0.000000 0
0.000001 0.000000 0
0.000001 0.000000 0
0.000002 0.000000 0
0.000003 0.000000 0
0.000004 0.000000 0
0.000005 0.000000 0
0.000006 0.000000 0
0.000007 0.000000 0
0.000007 0.000000 0
0.000008 0.000000 0
0.000008 0.000000 0
0.000008 0.000000 0
0.000008 0.000000 0
0.000008 0.000000 0
0.000008 0.000000 0
0.000008 0.000000 0
0.000007 0.000000 0
0.000007 0.000000 0
0.000006 0.000000 0
0.000005 0.000000 0
0.000005 0.000000 0
0.000004 0.000000 0
0.000003 0.000000 0
0.000002 0.000000 0
0.000002 0.000000 0
0.000001 0.000000 0
0.000000 0.000000 0
0.000000 0.000000 0
-0.000000 0.000000 0
0.000000 0.000000 0
0.000000 -0.000000 0
0.000003 -0.000003 0
-0.000122 0.000085 0
-0.000410 0.000188 0
-0.000858 0.000280 0
-0.001441 0.000352 0
-0.002127 0.000404 0
-0.002884 0.000435 0
-0.003679 0.000447 0
-0.004484 0.000443 0
-0.005270 0.000425 0
-0.006015 0.000394 0
-0.006698 0.000353 0
-0.007304 0.000303 0
-0.007820 0.000248 0
-0.008236 0.000189 0
-0.008546 0.000128 0
-0.008749 0.000066 0
-0.008842 0.000006 0
-0.008830 -0.000053 0
-0.008716 -0.000107 0
-0.008508 -0.000157 0
-0.008213 -0.000201 0
-0.007842 -0.000238 0
-0.007406 -0.000269 0
-0.006917 -0.000294 0
-0.006386 -0.000311 0
-0.005824 -0.000322 0
-0.005244 -0.000327 0
-0.004656 -0.000326 0
-0.004069 -0.000320 0
-0.003494 -0.000309 0
-0.002937 -0.000294 0
-0.002405 -0.000277 0
-0.001904 -0.000256 0
-0.001440 -0.000233 0
-0.001016 -0.000209 0
-0.000637 -0.000182 0
-0.000305 -0.000154 0
-0.000023 -0.000125 0
0.000206 -0.000095 0
0.000380 -0.000063 0
0.000497 -0.000031 0
0.000558 0.000001 0
0.000563 0.000032 0
0.000515 0.000060 0
0.000423 0.000082 0
0.000298 0.000093 0
0.000163 0.000085 0
0.000050 0.000051 0
0.000000 -0.000000 0
0.000000 -0.000000 0
-0.000083 0.000120 0
-0.000408 0.000412 0
-0.001000 0.000736 0
-0.001848 0.001030 0
-0.002916 0.001268 0
-0.004156 0.001442 0
-0.005517 0.001552 0
-0.006945 0.001599 0
-0.008391 0.001590 0
-0.009809 0.001530 0
-0.011159 0.001427 0
-0.012406 0.001289 0
-0.013522 0.001121 0
-0.014482 0.000931 0
-0.015270 0.000726 0
-0.015874 0.000512 0
-0.016288 0.000295 0
-0.016510 0.000081 0
-0.016543 -0.000127 0
-0.016393 -0.000323 0
-0.016072 -0.000504 0
-0.015592 -0.000666 0
-0.014971 -0.000807 0
-0.014226 -0.000926 0
-0.013378 -0.001021 0
-0.012446 -0.001093 0
-0.011452 -0.001142 0
-0.010416 -0.001169 0
-0.009356 -0.001175 0
-0.008291 -0.001162 0
-0.007237 -0.001133 0
-0.006209 -0.001089 0
-0.005220 -0.001032 0
-0.004281 -0.000965 0
-0.003402 -0.000888 0
-0.002592 -0.000803 0
-0.001859 -0.000711 0
-0.001208 -0.000613 0
-0.000646 -0.000510 0
-0.000177 -0.000403 0
0.000194 -0.000292 0
0.000466 -0.000178 0
0.000637 -0.000065 0
0.000710 0.000043 0
0.000690 0.000141 0
0.000591 0.000218 0
0.000433 0.000260 0
0.000249 0.000248 0
0.000084 0.000163 0
0.000000 0.000000 0
0.000000 0.000000 0
-0.000182 0.000404 0
-0.000723 0.001002 0
-0.001616 0.001629 0
-0.002831 0.002195 0
-0.004322 0.002660 0
-0.006030 0.003004 0
-0.007891 0.003223 0
-0.009841 0.003321 0
-0.011815 0.003308 0
-0.013756 0.003193 0
-0.015610 0.002991 0
-0.017332 0.002715 0
-0.018884 0.002379 0
-0.020233 0.001996 0
-0.021357 0.001581 0
-0.022237 0.001146 0
-0.022864 0.000702 0
-0.023233 0.000260 0
-0.023347 -0.000170 0
-0.023212 -0.000578 0
-0.022842 -0.000958 0
-0.022252 -0.001302 0
-0.021463 -0.001605 0
-0.020498 -0.001863 0
-0.019383 -0.002074 0
-0.018146 -0.002237 0
-0.016813 -0.002353 0
-0.015411 -0.002423 0
-0.013966 -0.002450 0
-0.012504 -0.002439 0
-0.011047 -0.002391 0
-0.009616 -0.002312 0
-0.008230 -0.002205 0
-0.006906 -0.002074 0
-0.005657 -0.001922 0
-0.004496 -0.001752 0
-0.003435 -0.001566 0
-0.002483 -0.001367 0
-0.001649 -0.001156 0
-0.000939 -0.000935 0
-0.000359 -0.000707 0
0.000087 -0.000474 0
0.000399 -0.000243 0
0.000578 -0.000021 0
0.000635 0.000179 0
0.000583 0.000339 0
0.000448 0.000434 0
0.000268 0.000433 0
0.000094 0.000300 0
0.000000 0.000000 0
0.000000 0.000000 0
-0.000271 0.000843 0
-0.001017 0.001847 0
-0.002190 0.002844 0
-0.003741 0.003735 0
-0.005608 0.004466 0
-0.007725 0.005011 0
-0.010017 0.005362 0
-0.012411 0.005523 0
-0.014835 0.005505 0
-0.017220 0.005325 0
-0.019506 0.005004 0
-0.021639 0.004562 0
-0.023573 0.004021 0
-0.025269 0.003404 0
-0.026699 0.002730 0
-0.027840 0.002019 0
-0.028678 0.001291 0
-0.029206 0.000564 0
-0.029423 -0.000148 0
-0.029337 -0.000828 0
-0.028959 -0.001464 0
-0.028309 -0.002045 0
-0.027408 -0.002561 0
-0.026285 -0.003005 0
-0.024968 -0.003374 0
-0.023489 -0.003664 0
-0.021881 -0.003877 0
-0.020178 -0.004015 0
-0.018412 -0.004081 0
-0.016612 -0.004081 0
-0.014808 -0.004021 0
-0.013026 -0.003906 0
-0.011290 -0.003743 0
-0.009621 -0.003539 0
-0.008039 -0.003297 0
-0.006558 -0.003024 0
-0.005195 -0.002724 0
-0.003960 -0.002399 0
-0.002866 -0.002054 0
-0.001920 -0.001692 0
-0.001130 -0.001318 0
-0.000501 -0.000936 0
-0.000033 -0.000557 0
0.000277 -0.000193 0
0.000437 0.000136 0
0.000465 0.000404 0
0.000387 0.000575 0
0.000243 0.000602 0
0.000088 0.000431 0
0.000000 0.000001 0
0.000000 0.000001 0
-0.000346 0.001420 0
-0.001272 0.002921 0
-0.002699 0.004352 0
-0.004553 0.005613 0
-0.006760 0.006643 0
-0.009240 0.007412 0
-0.011913 0.007909 0
-0.014698 0.008139 0
-0.017515 0.008116 0
-0.020291 0.007864 0
-0.022958 0.007409 0
-0.025456 0.006781 0
-0.027733 0.006009 0
-0.029747 0.005123 0
-0.031462 0.004152 0
-0.032853 0.003125 0
-0.033900 0.002067 0
-0.034593 0.001005 0
-0.034929 -0.000039 0
-0.034914 -0.001042 0
-0.034559 -0.001986 0
-0.033882 -0.002853 0
-0.032908 -0.003629 0
-0.031666 -0.004304 0
-0.030189 -0.004870 0
-0.028513 -0.005323 0
-0.026675 -0.005663 0
-0.024714 -0.005893 0
-0.022667 -0.006017 0
-0.020570 -0.006042 0
-0.018457 -0.005977 0
-0.016361 -0.005830 0
-0.014309 -0.005610 0
-0.012327 -0.005325 0
-0.010439 -0.004985 0
-0.008663 -0.004596 0
-0.007018 -0.004164 0
-0.005518 -0.003695 0
-0.004177 -0.003196 0
-0.003004 -0.002670 0
-0.002007 -0.002126 0
-0.001193 -0.001572 0
-0.000563 -0.001021 0
-0.000113 -0.000491 0
0.000165 -0.000009 0
0.000288 0.000390 0
0.000285 0.000657 0
0.000195 0.000732 0
0.000075 0.000543 0
0.000000 0.000002 0
0.000000 0.000001 0
-0.000407 0.002115 0
-0.001490 0.004200 0
-0.003142 0.006124 0
-0.005268 0.007795 0
-0.007780 0.009153 0
-0.010589 0.010165 0
-0.013606 0.010820 0
-0.016742 0.011124 0
-0.019914 0.011097 0
-0.023041 0.010767 0
-0.026053 0.010168 0
-0.028884 0.009337 0
-0.031479 0.008312 0
-0.033790 0.007133 0
-0.035778 0.005835 0
-0.037412 0.004457 0
-0.038669 0.003031 0
-0.039535 0.001593 0
-0.040005 0.000173 0
-0.040079 -0.001199 0
-0.039768 -0.002496 0
-0.039090 -0.003696 0
-0.038069 -0.004777 0
-0.036737 -0.005725 0
-0.035128 -0.006527 0
-0.033282 -0.007178 0
-0.031242 -0.007676 0
-0.029049 -0.008023 0
-0.026747 -0.008225 0
-0.024378 -0.008291 0
-0.021980 -0.008230 0
-0.019592 -0.008054 0
-0.017245 -0.007777 0
-0.014971 -0.007409 0
-0.012795 -0.006961 0
-0.010742 -0.006445 0
-0.008831 -0.005869 0
-0.007079 -0.005241 0
-0.005502 -0.004569 0
-0.004110 -0.003862 0
-0.002914 -0.003128 0
-0.001919 -0.002381 0
-0.001127 -0.001637 0
-0.000535 -0.000921 0
-0.000135 -0.000265 0
0.000090 0.000284 0
0.000169 0.000668 0
0.000140 0.000813 0
0.000059 0.000627 0
0.000000 0.000002 0
0.000000 0.000002 0
-0.000458 0.002910 0
-0.001675 0.005655 0
-0.003524 0.008130 0
-0.005895 0.010252 0
-0.008684 0.011965 0
-0.011792 0.013238 0
-0.015123 0.014062 0
-0.018581 0.014446 0
-0.022078 0.014415 0
-0.025530 0.014003 0
-0.028862 0.013252 0
-0.032006 0.012207 0
-0.034902 0.010914 0
-0.037499 0.009421 0
-0.039754 0.007774 0
-0.041631 0.006015 0
-0.043104 0.004190 0
-0.044154 0.002340 0
-0.044771 0.000504 0
-0.044952 -0.001279 0
-0.044706 -0.002975 0
-0.044048 -0.004552 0
-0.043003 -0.005982 0
-0.041601 -0.007245 0
-0.039880 -0.008324 0
-0.037884 -0.009209 0
-0.035657 -0.009897 0
-0.033247 -0.010387 0
-0.030704 -0.010688 0
-0.028074 -0.010809 0
-0.025402 -0.010763 0
-0.022731 -0.010565 0
-0.020099 -0.010231 0
-0.017542 -0.009775 0
-0.015088 -0.009214 0
-0.012766 -0.008560 0
-0.010598 -0.007826 0
-0.008603 -0.007024 0
-0.006798 -0.006164 0
-0.005195 -0.005258 0
-0.003804 -0.004318 0
-0.002633 -0.003359 0
-0.001683 -0.002404 0
-0.000952 -0.001482 0
-0.000431 -0.000634 0
-0.000105 0.000086 0
0.000055 0.000608 0
0.000086 0.000842 0
0.000044 0.000683 0
0.000000 0.000003 0
0.000000 0.000002 0
-0.000501 0.003789 0
-0.001833 0.007265 0
-0.003856 0.010343 0
-0.006446 0.012955 0
-0.009487 0.015050 0
-0.012869 0.016603 0
-0.016489 0.017608 0
-0.020247 0.018079 0
-0.024047 0.018046 0
-0.027805 0.017551 0
-0.031441 0.016643 0
-0.034884 0.015376 0
-0.038072 0.013805 0
-0.040951 0.011984 0
-0.043474 0.009968 0
-0.045602 0.007807 0
-0.047302 0.005554 0
-0.048551 0.003259 0
-0.049334 0.000971 0
-0.049644 -0.001264 0
-0.049485 -0.003401 0
-0.048871 -0.005399 0
-0.047822 -0.007225 0
-0.046370 -0.008847 0
-0.044554 -0.010245 0
-0.042420 -0.011402 0
-0.040017 -0.012313 0
-0.037398 -0.012976 0
-0.034618 -0.013399 0
-0.031729 -0.013592 0
-0.028783 -0.013572 0
-0.025829 -0.013357 0
-0.022911 -0.012967 0
-0.020068 -0.012420 0
-0.017336 -0.011737 0
-0.014745 -0.010935 0
-0.012320 -0.010032 0
-0.010084 -0.009041 0
-0.008053 -0.007977 0
-0.006242 -0.006855 0
-0.004660 -0.005690 0
-0.003316 -0.004502 0
-0.002211 -0.003318 0
-0.001345 -0.002172 0
-0.000707 -0.001112 0
-0.000284 -0.000202 0
-0.000048 0.000478 0
0.000040 0.000824 0
0.000032 0.000713 0
0.000000 0.000004 0
0.000000 0.000003 0
-0.000537 0.004742 0
-0.001970 0.009011 0
-0.004148 0.012742 0
-0.006935 0.015882 0
-0.010205 0.018388 0
-0.013841 0.020240 0
-0.017731 0.021439 0
-0.021769 0.022004 0
-0.025856 0.021973 0
-0.029905 0.021396 0
-0.033833 0.020330 0
-0.037568 0.018838 0
-0.041046 0.016982 0
-0.044209 0.014823 0
-0.047007 0.012424 0
-0.049397 0.009843 0
-0.051342 0.007139 0
-0.052812 0.004371 0
-0.053787 0.001597 0
-0.054253 -0.001128 0
-0.054210 -0.003749 0
-0.053665 -0.006216 0
-0.052639 -0.008483 0
-0.051160 -0.010513 0
-0.049268 -0.012274 0
-0.047009 -0.013747 0
-0.044439 -0.014918 0
-0.041614 -0.015787 0
-0.038595 -0.016358 0
-0.035443 -0.016644 0
-0.032215 -0.016663 0
-0.028969 -0.016437 0
-0.025753 -0.015991 0
-0.022614 -0.015350 0
-0.019593 -0.014537 0
-0.016723 -0.013576 0
-0.014034 -0.012487 0
-0.011548 -0.011292 0
-0.009287 -0.010007 0
-0.007263 -0.008650 0
-0.005489 -0.007243 0
-0.003971 -0.005808 0
-0.002713 -0.004375 0
-0.001712 -0.002986 0
-0.000961 -0.001695 0
-0.000444 -0.000574 0
-0.000136 0.000284 0
0.000002 0.000763 0
0.000023 0.000722 0
0.000000 0.000005 0
0.000000 0.000003 0
-0.000568 0.005759 0
-0.002090 0.010876 0
-0.004406 0.015308 0
-0.007372 0.019012 0
-0.010854 0.021957 0
-0.014725 0.024129 0
-0.018867 0.025535 0
-0.023170 0.026205 0
-0.027532 0.026182 0
-0.031860 0.025527 0
-0.036073 0.024306 0
-0.040096 0.022589 0
-0.043863 0.020446 0
-0.047317 0.017946 0
-0.050402 0.015156 0
-0.053073 0.012142 0
-0.055286 0.008969 0
-0.057006 0.005703 0
-0.058205 0.002412 0
-0.058863 -0.000841 0
-0.058972 -0.003988 0
-0.058534 -0.006971 0
-0.057563 -0.009730 0
-0.056086 -0.012219 0
-0.054142 -0.014395 0
-0.051778 -0.016231 0
-0.049051 -0.017708 0
-0.046025 -0.018820 0
-0.042765 -0.019570 0
-0.039342 -0.019972 0
-0.035820 -0.020047 0
-0.032263 -0.019820 0
-0.028732 -0.019321 0
-0.025277 -0.018580 0
-0.021945 -0.017628 0
-0.018777 -0.016495 0
-0.015804 -0.015206 0
-0.013054 -0.013787 0
-0.010547 -0.012262 0
-0.008299 -0.010652 0
-0.006322 -0.008982 0
-0.004623 -0.007278 0
-0.003205 -0.005577 0
-0.002066 -0.003924 0
-0.001200 -0.002380 0
-0.000590 -0.001026 0
-0.000213 0.000032 0
-0.000029 0.000665 0
0.000017 0.000715 0
0.000000 0.000006 0
0.000000 0.000004 0
-0.000596 0.006832 0
-0.002197 0.012848 0
-0.004639 0.018024 0
-0.007769 0.022329 0
-0.011446 0.025740 0
-0.015536 0.028253 0
-0.019916 0.029883 0
-0.024470 0.030668 0
-0.029094 0.030663 0
-0.033693 0.029937 0
-0.038184 0.028566 0
-0.042494 0.026629 0
-0.046555 0.024203 0
-0.050307 0.021362 0
-0.053695 0.018180 0
-0.056668 0.014726 0
-0.059179 0.011072 0
-0.061184 0.007290 0
-0.062647 0.003453 0
-0.063542 -0.000361 0
-0.063850 -0.004078 0
-0.063565 -0.007624 0
-0.062695 -0.010930 0
-0.061262 -0.013934 0
-0.059300 -0.016583 0
-0.056858 -0.018838 0
-0.053994 -0.020672 0
-0.050777 -0.022072 0
-0.047279 -0.023041 0
-0.043576 -0.023589 0
-0.039745 -0.023741 0
-0.035859 -0.023526 0
-0.031985 -0.022978 0
-0.028186 -0.022136 0
-0.024515 -0.021036 0
-0.021018 -0.019717 0
-0.017732 -0.018210 0
-0.014689 -0.016549 0
-0.011911 -0.014761 0
-0.009416 -0.012875 0
-0.007215 -0.010919 0
-0.005317 -0.008925 0
-0.003725 -0.006932 0
-0.002436 -0.004991 0
-0.001445 -0.003170 0
-0.000737 -0.001560 0
-0.000288 -0.000277 0
-0.000057 0.000533 0
0.000012 0.000694 0
0.000000 0.000007 0
0.000000 0.000004 0
-0.000621 0.007955 0
-0.002294 0.014918 0
-0.004850 0.020879 0
-0.008131 0.025819 0
-0.011990 0.029724 0
-0.016287 0.032599 0
-0.020891 0.034469 0
-0.025685 0.035382 0
-0.030559 0.035405 0
-0.035421 0.034618 0
-0.040185 0.033107 0
-0.044779 0.030959 0
-0.049137 0.028259 0
-0.053199 0.025086 0
-0.056907 0.021517 0
-0.060207 0.017625 0
-0.063047 0.013484 0
-0.065378 0.009172 0
-0.067155 0.004770 0
-0.068340 0.000362 0
-0.068905 -0.003965 0
-0.068834 -0.008125 0
-0.068124 -0.012033 0
-0.066791 -0.015614 0
-0.064862 -0.018799 0
-0.062384 -0.021537 0
-0.059416 -0.023789 0
-0.056028 -0.025535 0
-0.052301 -0.026771 0
-0.048318 -0.027505 0
-0.044166 -0.027764 0
-0.039929 -0.027580 0
-0.035685 -0.026993 0
-0.031506 -0.026050 0
-0.027457 -0.024796 0
-0.023591 -0.023277 0
-0.019952 -0.021535 0
-0.016575 -0.019609 0
-0.013487 -0.017535 0
-0.010708 -0.015348 0
-0.008250 -0.013080 0
-0.006122 -0.010769 0
-0.004328 -0.008458 0
-0.002866 -0.006203 0
-0.001731 -0.004078 0
-0.000908 -0.002184 0
-0.000373 -0.000648 0
-0.000088 0.000365 0
0.000008 0.000659 0
0.000000 0.000008 0
0.000000 0.000005 0
-0.000643 0.009125 0
-0.002382 0.017077 0
-0.005045 0.023862 0
-0.008467 0.029469 0
-0.012496 0.033896 0
-0.016987 0.037154 0
-0.021803 0.039281 0
-0.026824 0.040336 0
-0.031939 0.040399 0
-0.037054 0.039563 0
-0.042085 0.037924 0
-0.046962 0.035580 0
-0.051620 0.032622 0
-0.055999 0.029131 0
-0.060044 0.025188 0
-0.063697 0.020867 0
-0.066903 0.016244 0
-0.069605 0.011398 0
-0.071749 0.006415 0
-0.073287 0.001388 0
-0.074178 -0.003585 0
-0.074394 -0.008405 0
-0.073921 -0.012973 0
-0.072761 -0.017196 0
-0.070935 -0.020989 0
-0.068482 -0.024284 0
-0.065460 -0.027027 0
-0.061941 -0.029187 0
-0.058009 -0.030751 0
-0.053756 -0.031724 0
-0.049279 -0.032130 0
-0.044673 -0.032007 0
-0.040030 -0.031400 0
-0.035435 -0.030363 0
-0.030963 -0.028952 0
-0.026677 -0.027222 0
-0.022631 -0.025226 0
-0.018867 -0.023013 0
-0.015415 -0.020628 0
-0.012300 -0.018112 0
-0.009535 -0.015504 0
-0.007131 -0.012847 0
-0.005091 -0.010188 0
-0.003416 -0.007588 0
-0.002100 -0.005129 0
-0.001132 -0.002918 0
-0.000489 -0.001097 0
-0.000132 0.000153 0
0.000000 0.000606 0
0.000000 0.000008 0
0.000000 0.000006 0
-0.000664 0.010337 0
-0.002464 0.019319 0
-0.005226 0.026964 0
-0.008781 0.033270 0
-0.012970 0.038244 0
-0.017644 0.041906 0
-0.022661 0.044306 0
-0.027897 0.045518 0
-0.033242 0.045635 0
-0.038600 0.044764 0
-0.043890 0.043014 0
-0.049045 0.040493 0
-0.054002 0.037296 0
-0.058707 0.033510 0
-0.063102 0.029215 0
-0.067133 0.024484 0
-0.070738 0.019392 0
-0.073857 0.014018 0
-0.076427 0.008452 0
-0.078387 0.002791 0
-0.079684 -0.002859 0
-0.080274 -0.008383 0
-0.080129 -0.013667 0
-0.079236 -0.018600 0
-0.077604 -0.023078 0
-0.075263 -0.027011 0
-0.072262 -0.030330 0
-0.068673 -0.032987 0
-0.064582 -0.034955 0
-0.060088 -0.036235 0
-0.055296 -0.036847 0
-0.050315 -0.036828 0
-0.045250 -0.036231 0
-0.040201 -0.035118 0
-0.035257 -0.033554 0
-0.030494 -0.031608 0
-0.025977 -0.029345 0
-0.021756 -0.026825 0
-0.017871 -0.024102 0
-0.014348 -0.021228 0
-0.011207 -0.018249 0
-0.008459 -0.015213 0
-0.006111 -0.012172 0
-0.004163 -0.009193 0
-0.002613 -0.006362 0
-0.001452 -0.003795 0
-0.000660 -0.001648 0
-0.000201 -0.000123 0
-0.000014 0.000527 0
0.000000 0.000009 0
0.000000 0.000006 0
-0.000683 0.011589 0
-0.002542 0.021639 0
-0.005397 0.030178 0
-0.009077 0.037213 0
-0.013418 0.042758 0
-0.018264 0.046845 0
-0.023472 0.049534 0
-0.028912 0.050916 0
-0.034473 0.051101 0
-0.040061 0.050211 0
-0.045600 0.048369 0
-0.051025 0.045692 0
-0.056279 0.042283 0
-0.061310 0.038231 0
-0.066067 0.033614 0
-0.070494 0.028503 0
-0.074530 0.022968 0
-0.078111 0.017086 0
-0.081164 0.010945 0
-0.083620 0.004646 0
-0.085409 -0.001698 0
-0.086472 -0.007960 0
-0.086762 -0.014012 0
-0.086250 -0.019721 0
-0.084927 -0.024963 0
-0.082807 -0.029626 0
-0.079932 -0.033617 0
-0.076364 -0.036867 0
-0.072189 -0.039336 0
-0.067507 -0.041010 0
-0.062434 -0.041903 0
-0.057089 -0.042052 0
-0.051592 -0.041513 0
-0.046058 -0.040356 0
-0.040594 -0.038659 0
-0.035292 -0.036502 0
-0.030229 -0.033964 0
-0.025470 -0.031119 0
-0.021063 -0.028036 0
-0.017043 -0.024775 0
-0.013435 -0.021393 0
-0.010253 -0.017943 0
-0.007508 -0.014484 0
-0.005204 -0.011085 0
-0.003343 -0.007840 0
-0.001919 -0.004871 0
-0.000919 -0.002347 0
-0.000311 -0.000493 0
-0.000039 0.000405 0
0.000000 0.000009 0
0.000000 0.000007 0
-0.000702 0.012878 0
-0.002615 0.024032 0
-0.005559 0.033499 0
-0.009359 0.041292 0
-0.013845 0.047431 0
-0.018855 0.051959 0
-0.024241 0.054953 0
-0.029872 0.056518 0
-0.035635 0.056784 0
-0.041441 0.055891 0
-0.047214 0.053978 0
-0.052896 0.051171 0
-0.058437 0.047581 0
-0.063791 0.043298 0
-0.068912 0.038398 0
-0.073749 0.032947 0
-0.078241 0.027008 0
-0.082321 0.020652 0
-0.085913 0.013961 0
-0.088936 0.007035 0
-0.091307 -0.000006 0
-0.092948 -0.007029 0
-0.093792 -0.013889 0
-0.093791 -0.020435 0
-0.092914 -0.026520 0
-0.091157 -0.032006 0
-0.088541 -0.036773 0
-0.085120 -0.040730 0
-0.080969 -0.043812 0
-0.076189 -0.045990 0
-0.070898 -0.047265 0
-0.065226 -0.047670 0
-0.059307 -0.047261 0
-0.053274 -0.046115 0
-0.047249 -0.044321 0
-0.041345 -0.041973 0
-0.035658 -0.039166 0
-0.030267 -0.035990 0
-0.025234 -0.032529 0
-0.020605 -0.028857 0
-0.016413 -0.025039 0
-0.012682 -0.021139 0
-0.009426 -0.017221 0
-0.006656 -0.013358 0
-0.004378 -0.009647 0
-0.002596 -0.006219 0
-0.001305 -0.003256 0
-0.000482 -0.001004 0
-0.000080 0.000216 0
0.000000 0.000010 0
0.000000 0.000007 0
-0.000719 0.014204 0
-0.002686 0.026497 0
-0.005717 0.036922 0
-0.009632 0.045499 0
-0.014255 0.052253 0
-0.019420 0.057240 0
-0.024974 0.060551 0
-0.030782 0.062311 0
-0.036734 0.062670 0
-0.042739 0.061789 0
-0.048729 0.059825 0
-0.054651 0.056915 0
-0.060464 0.053178 0
-0.066130 0.048706 0
-0.071609 0.043571 0
-0.076858 0.037831 0
-0.081820 0.031540 0
-0.086428 0.024759 0
-0.090604 0.017560 0
-0.094259 0.010039 0
-0.097296 0.002314 0
-0.099621 -0.005475 0
-0.101146 -0.013168 0
-0.101799 -0.020599 0
-0.101525 -0.027597 0
-0.100293 -0.033998 0
-0.098105 -0.039654 0
-0.094990 -0.044440 0
-0.091012 -0.048267 0
-0.086262 -0.051080 0
-0.080857 -0.052865 0
-0.074933 -0.053643 0
-0.068633 -0.053466 0
-0.062107 -0.052415 0
-0.055499 -0.050587 0
-0.048940 -0.048092 0
-0.042549 -0.045042 0
-0.036424 -0.041543 0
-0.030647 -0.037698 0
-0.025279 -0.033595 0
-0.020366 -0.029315 0
-0.015942 -0.024930 0
-0.012031 -0.020510 0
-0.008653 -0.016133 0
-0.005824 -0.011899 0
-0.003558 -0.007944 0
-0.001864 -0.004461 0
-0.000737 -0.001718 0
-0.000144 -0.000077 0
0.000000 0.000009 0
0.000000 0.000008 0
-0.000737 0.015564 0
-0.002756 0.029030 0
-0.005871 0.040444 0
-0.009898 0.049830 0
-0.014654 0.057219 0
-0.019967 0.062678 0
-0.025677 0.066315 0
-0.031649 0.068278 0
-0.037770 0.068740 0
-0.043955 0.067886 0
-0.050140 0.065890 0
-0.056281 0.062906 0
-0.062344 0.059059 0
-0.068301 0.054443 0
-0.074124 0.049126 0