# vtk DataFile Version 2.0
generated by CFD-lab course output (written by Tobias Neckel) 
ASCII

DATASET STRUCTURED_GRID
DIMENSIONS  51 51 1 
POINTS 2601 float

0.000000 0.000000 0
0.020000 0.000000 0
0.040000 0.000000 0
0.060000 0.000000 0
0.080000 0.000000 0
0.100000 0.000000 0
0.120000 0.000000 0
0.140000 0.000000 0
0.160000 0.000000 0
0.180000 0.000000 0
0.200000 0.000000 0
0.220000 0.000000 0
0.240000 0.000000 0
0.260000 0.000000 0
0.280000 0.000000 0
0.300000 0.000000 0
0.320000 0.000000 0
0.340000 0.000000 0
0.360000 0.000000 0
0.380000 0.000000 0
0.400000 0.000000 0
0.420000 0.000000 0
0.440000 0.000000 0
0.460000 0.000000 0
0.480000 0.000000 0
0.500000 0.000000 0
0.520000 0.000000 0
0.540000 0.000000 0
0.560000 0.000000 0
0.580000 0.000000 0
0.600000 0.000000 0
0.620000 0.000000 0
0.640000 0.000000 0
0.660000 0.000000 0
0.680000 0.000000 0
0.700000 0.000000 0
0.720000 0.000000 0
0.740000 0.000000 0
0.760000 0.000000 0
0.780000 0.000000 0
0.800000 0.000000 0
0.820000 0.000000 0
0.840000 0.000000 0
0.860000 0.000000 0
0.880000 0.000000 0
0.900000 0.000000 0
0.920000 0.000000 0
0.940000 0.000000 0
0.960000 0.000000 0
0.980000 0.000000 0
1.000000 0.000000 0
0.000000 0.020000 0
0.020000 0.020000 0
0.040000 0.020000 0
0.060000 0.020000 0
0.080000 0.020000 0
0.100000 0.020000 0
0.120000 0.020000 0
0.140000 0.020000 0
0.160000 0.020000 0
0.180000 0.020000 0
0.200000 0.020000 0
0.220000 0.020000 0
0.240000 0.020000 0
0.260000 0.020000 0
0.280000 0.020000 0
0.300000 0.020000 0
0.320000 0.020000 0
0.340000 0.020000 0
0.360000 0.020000 0
0.380000 0.020000 0
0.400000 0.020000 0
0.420000 0.020000 0
0.440000 0.020000 0
0.460000 0.020000 0
0.480000 0.020000 0
0.500000 0.020000 0
0.520000 0.020000 0
0.540000 0.020000 0
0.560000 0.020000 0
0.580000 0.020000 0
0.600000 0.020000 0
0.620000 0.020000 0
0.640000 0.020000 0
0.660000 0.020000 0
0.680000 0.020000 0
0.700000 0.020000 0
0.720000 0.020000 0
0.740000 0.020000 0
0.760000 0.020000 0
0.780000 0.020000 0
0.800000 0.020000 0
0.820000 0.020000 0
0.840000 0.020000 0
0.860000 0.020000 0
0.880000 0.020000 0
0.900000 0.020000 0
0.920000 0.020000 0
0.940000 0.020000 0
0.960000 0.020000 0
0.980000 0.020000 0
1.000000 0.020000 0
0.000000 0.040000 0
0.020000 0.040000 0
0.040000 0.040000 0
0.060000 0.040000 0
0.080000 0.040000 0
0.100000 0.040000 0
0.120000 0.040000 0
0.140000 0.040000 0
0.160000 0.040000 0
0.180000 0.040000 0
0.200000 0.040000 0
0.220000 0.040000 0
0.240000 0.040000 0
0.260000 0.040000 0
0.280000 0.040000 0
0.300000 0.040000 0
0.320000 0.040000 0
0.340000 0.040000 0
0.360000 0.040000 0
0.380000 0.040000 0
0.400000 0.040000 0
0.420000 0.040000 0
0.440000 0.040000 0
0.460000 0.040000 0
0.480000 0.040000 0
0.500000 0.040000 0
0.520000 0.040000 0
0.540000 0.040000 0
0.560000 0.040000 0
0.580000 0.040000 0
0.600000 0.040000 0
0.620000 0.040000 0
0.640000 0.040000 0
0.660000 0.040000 0
0.680000 0.040000 0
0.700000 0.040000 0
0.720000 0.040000 0
0.740000 0.040000 0
0.760000 0.040000 0
0.780000 0.040000 0
0.800000 0.040000 0
0.820000 0.040000 0
0.840000 0.040000 0
0.860000 0.040000 0
0.880000 0.040000 0
0.900000 0.040000 0
0.920000 0.040000 0
0.940000 0.040000 0
0.960000 0.040000 0
0.980000 0.040000 0
1.000000 0.040000 0
0.000000 0.060000 0
0.020000 0.060000 0
0.040000 0.060000 0
0.060000 0.060000 0
0.080000 0.060000 0
0.100000 0.060000 0
0.120000 0.060000 0
0.140000 0.060000 0
0.160000 0.060000 0
0.180000 0.060000 0
0.200000 0.060000 0
0.220000 0.060000 0
0.240000 0.060000 0
0.260000 0.060000 0
0.280000 0.060000 0
0.300000 0.060000 0
0.320000 0.060000 0
0.340000 0.060000 0
0.360000 0.060000 0
0.380000 0.060000 0
0.400000 0.060000 0
0.420000 0.060000 0
0.440000 0.060000 0
0.460000 0.060000 0
0.480000 0.060000 0
0.500000 0.060000 0
0.520000 0.060000 0
0.540000 0.060000 0
0.560000 0.060000 0
0.580000 0.060000 0
0.600000 0.060000 0
0.620000 0.060000 0
0.640000 0.060000 0
0.660000 0.060000 0
0.680000 0.060000 0
0.700000 0.060000 0
0.720000 0.060000 0
0.740000 0.060000 0
0.760000 0.060000 0
0.780000 0.060000 0
0.800000 0.060000 0
0.820000 0.060000 0
0.840000 0.060000 0
0.860000 0.060000 0
0.880000 0.060000 0
0.900000 0.060000 0
0.920000 0.060000 0
0.940000 0.060000 0
0.960000 0.060000 0
0.980000 0.060000 0
1.000000 0.060000 0
0.000000 0.080000 0
0.020000 0.080000 0
0.040000 0.080000 0
0.060000 0.080000 0
0.080000 0.080000 0
0.100000 0.080000 0
0.120000 0.080000 0
0.140000 0.080000 0
0.160000 0.080000 0
0.180000 0.080000 0
0.200000 0.080000 0
0.220000 0.080000 0
0.240000 0.080000 0
0.260000 0.080000 0
0.280000 0.080000 0
0.300000 0.080000 0
0.320000 0.080000 0
0.340000 0.080000 0
0.360000 0.080000 0
0.380000 0.080000 0
0.400000 0.080000 0
0.420000 0.080000 0
0.440000 0.080000 0
0.460000 0.080000 0
0.480000 0.080000 0
0.500000 0.080000 0
0.520000 0.080000 0
0.540000 0.080000 0
0.560000 0.080000 0
0.580000 0.080000 0
0.600000 0.080000 0
0.620000 0.080000 0
0.640000 0.080000 0
0.660000 0.080000 0
0.680000 0.080000 0
0.700000 0.080000 0
0.720000 0.080000 0
0.740000 0.080000 0
0.760000 0.080000 0
0.780000 0.080000 0
0.800000 0.080000 0
0.820000 0.080000 0
0.840000 0.080000 0
0.860000 0.080000 0
0.880000 0.080000 0
0.900000 0.080000 0
0.920000 0.080000 0
0.940000 0.080000 0
0.960000 0.080000 0
0.980000 0.080000 0
1.000000 0.080000 0
0.000000 0.100000 0
0.020000 0.100000 0
0.040000 0.100000 0
0.060000 0.100000 0
0.080000 0.100000 0
0.100000 0.100000 0
0.120000 0.100000 0
0.140000 0.100000 0
0.160000 0.100000 0
0.180000 0.100000 0
0.200000 0.100000 0
0.220000 0.100000 0
0.240000 0.100000 0
0.260000 0.100000 0
0.280000 0.100000 0
0.300000 0.100000 0
0.320000 0.100000 0
0.340000 0.100000 0
0.360000 0.100000 0
0.380000 0.100000 0
0.400000 0.100000 0
0.420000 0.100000 0
0.440000 0.100000 0
0.460000 0.100000 0
0.480000 0.100000 0
0.500000 0.100000 0
0.520000 0.100000 0
0.540000 0.100000 0
0.560000 0.100000 0
0.580000 0.100000 0
0.600000 0.100000 0
0.620000 0.100000 0
0.640000 0.100000 0
0.660000 0.100000 0
0.680000 0.100000 0
0.700000 0.100000 0
0.720000 0.100000 0
0.740000 0.100000 0
0.760000 0.100000 0
0.780000 0.100000 0
0.800000 0.100000 0
0.820000 0.100000 0
0.840000 0.100000 0
0.860000 0.100000 0
0.880000 0.100000 0
0.900000 0.100000 0
0.920000 0.100000 0
0.940000 0.100000 0
0.960000 0.100000 0
0.980000 0.100000 0
1.000000 0.100000 0
0.000000 0.120000 0
0.020000 0.120000 0
0.040000 0.120000 0
0.060000 0.120000 0
0.080000 0.120000 0
0.100000 0.120000 0
0.120000 0.120000 0
0.140000 0.120000 0
0.160000 0.120000 0
0.180000 0.120000 0
0.200000 0.120000 0
0.220000 0.120000 0
0.240000 0.120000 0
0.260000 0.120000 0
0.280000 0.120000 0
0.300000 0.120000 0
0.320000 0.120000 0
0.340000 0.120000 0
0.360000 0.120000 0
0.380000 0.120000 0
0.400000 0.120000 0
0.420000 0.120000 0
0.440000 0.120000 0
0.460000 0.120000 0
0.480000 0.120000 0
0.500000 0.120000 0
0.520000 0.120000 0
0.540000 0.120000 0
0.560000 0.120000 0
0.580000 0.120000 0
0.600000 0.120000 0
0.620000 0.120000 0
0.640000 0.120000 0
0.660000 0.120000 0
0.680000 0.120000 0
0.700000 0.120000 0
0.720000 0.120000 0
0.740000 0.120000 0
0.760000 0.120000 0
0.780000 0.120000 0
0.800000 0.120000 0
0.820000 0.120000 0
0.840000 0.120000 0
0.860000 0.120000 0
0.880000 0.120000 0
0.900000 0.120000 0
0.920000 0.120000 0
0.940000 0.120000 0
0.960000 0.120000 0
0.980000 0.120000 0
1.000000 0.120000 0
0.000000 0.140000 0
0.020000 0.140000 0
0.040000 0.140000 0
0.060000 0.140000 0
0.080000 0.140000 0
0.100000 0.140000 0
0.120000 0.140000 0
0.140000 0.140000 0
0.160000 0.140000 0
0.180000 0.140000 0
0.200000 0.140000 0
0.220000 0.140000 0
0.240000 0.140000 0
0.260000 0.140000 0
0.280000 0.140000 0
0.300000 0.140000 0
0.320000 0.140000 0
0.340000 0.140000 0
0.360000 0.140000 0
0.380000 0.140000 0
0.400000 0.140000 0
0.420000 0.140000 0
0.440000 0.140000 0
0.460000 0.140000 0
0.480000 0.140000 0
0.500000 0.140000 0
0.520000 0.140000 0
0.540000 0.140000 0
0.560000 0.140000 0
0.580000 0.140000 0
0.600000 0.140000 0
0.620000 0.140000 0
0.640000 0.140000 0
0.660000 0.140000 0
0.680000 0.140000 0
0.700000 0.140000 0
0.720000 0.140000 0
0.740000 0.140000 0
0.760000 0.140000 0
0.780000 0.140000 0
0.800000 0.140000 0
0.820000 0.140000 0
0.840000 0.140000 0
0.860000 0.140000 0
0.880000 0.140000 0
0.900000 0.140000 0
0.920000 0.140000 0
0.940000 0.140000 0
0.960000 0.140000 0
0.980000 0.140000 0
1.000000 0.140000 0
0.000000 0.160000 0
0.020000 0.160000 0
0.040000 0.160000 0
0.060000 0.160000 0
0.080000 0.160000 0
0.100000 0.160000 0
0.120000 0.160000 0
0.140000 0.160000 0
0.160000 0.160000 0
0.180000 0.160000 0
0.200000 0.160000 0
0.220000 0.160000 0
0.240000 0.160000 0
0.260000 0.160000 0
0.280000 0.160000 0
0.300000 0.160000 0
0.320000 0.160000 0
0.340000 0.160000 0
0.360000 0.160000 0
0.380000 0.160000 0
0.400000 0.160000 0
0.420000 0.160000 0
0.440000 0.160000 0
0.460000 0.160000 0
0.480000 0.160000 0
0.500000 0.160000 0
0.520000 0.160000 0
0.540000 0.160000 0
0.560000 0.160000 0
0.580000 0.160000 0
0.600000 0.160000 0
0.620000 0.160000 0
0.640000 0.160000 0
0.660000 0.160000 0
0.680000 0.160000 0
0.700000 0.160000 0
0.720000 0.160000 0
0.740000 0.160000 0
0.760000 0.160000 0
0.780000 0.160000 0
0.800000 0.160000 0
0.820000 0.160000 0
0.840000 0.160000 0
0.860000 0.160000 0
0.880000 0.160000 0
0.900000 0.160000 0
0.920000 0.160000 0
0.940000 0.160000 0
0.960000 0.160000 0
0.980000 0.160000 0
1.000000 0.160000 0
0.000000 0.180000 0
0.020000 0.180000 0
0.040000 0.180000 0
0.060000 0.180000 0
0.080000 0.180000 0
0.100000 0.180000 0
0.120000 0.180000 0
0.140000 0.180000 0
0.160000 0.180000 0
0.180000 0.180000 0
0.200000 0.180000 0
0.220000 0.180000 0
0.240000 0.180000 0
0.260000 0.180000 0
0.280000 0.180000 0
0.300000 0.180000 0
0.320000 0.180000 0
0.340000 0.180000 0
0.360000 0.180000 0
0.380000 0.180000 0
0.400000 0.180000 0
0.420000 0.180000 0
0.440000 0.180000 0
0.460000 0.180000 0
0.480000 0.180000 0
0.500000 0.180000 0
0.520000 0.180000 0
0.540000 0.180000 0
0.560000 0.180000 0
0.580000 0.180000 0
0.600000 0.180000 0
0.620000 0.180000 0
[...]
POINT_DATA 2601 

VECTORS velocity float
0.000000 0.000000 0
0.000000 0.000000 0
-0.000000 0.000000 0
-0.000000 0.000000 0
-0.000001 0.000000 0
-0.000001 0.000000 0
-0.000002 0.000000 0
-0.000002 0.000000 0
-0.000003 0.000000 0
-0.000003 0.000000 0
-0.000003 0.000000 0
-0.000004 0.000000 0
-0.000004 0.000000 0
-0.000003 0.000000 0
-0.000003 0.000000 0
-0.000003 0.000000 0
-0.000002 0.000000 0
-0.000001 0.000000 0
-0.000000 0.000000 0
0.000001 0.000000 0
0.000002 0.000000 0
0.000003 0.000000 0
0.000004 0.000000 0
0.000005 0.000000 0
0.000006 0.000000 0
0.000007 0.000000 0
0.000007 0.000000 0
0.000008 0.000000 0
0.000008 0.000000 0
0.000009 0.000000 0
0.000009 0.000000 0
0.000009 0.000000 0
0.000009 0.000000 0
0.000009 0.000000 0
0.000008 0.000000 0
0.000008 0.000000 0
0.000007 0.000000 0
0.000007 0.000000 0
0.000006 0.000000 0
0.000006 0.000000 0
0.000005 0.000000 0
0.000004 0.000000 0
0.000003 0.000000 0
0.000003 0.000000 0
0.000002 0.000000 0
0.000001 0.000000 0
0.000001 0.000000 0
0.000000 0.000000 0
0.000000 0.000000 0
-0.000000 0.000000 0
0.000000 0.000000 0
0.000000 -0.000000 0
0.000002 -0.000002 0
-0.000156 0.000109 0
-0.000522 0.000239 0
-0.001086 0.000353 0
-0.001817 0.000442 0
-0.002673 0.000503 0
-0.003610 0.000537 0
-0.004583 0.000544 0
-0.005549 0.000527 0
-0.006470 0.000489 0
-0.007312 0.000433 0
-0.008045 0.000362 0
-0.008646 0.000280 0
-0.009100 0.000192 0
-0.009397 0.000099 0
-0.009531 0.000007 0
-0.009505 -0.000082 0
-0.009324 -0.000165 0
-0.009001 -0.000241 0
-0.008548 -0.000306 0
-0.007984 -0.000360 0
-0.007328 -0.000403 0
-0.006600 -0.000433 0
-0.005821 -0.000452 0
-0.005011 -0.000460 0
-0.004189 -0.000458 0
-0.003374 -0.000446 0
-0.002580 -0.000426 0
-0.001822 -0.000400 0
-0.001111 -0.000368 0
-0.000456 -0.000332 0
0.000133 -0.000292 0
0.000653 -0.000250 0
0.001098 -0.000207 0
0.001466 -0.000163 0
0.001756 -0.000119 0
0.001967 -0.000075 0
0.002099 -0.000031 0
0.002155 0.000011 0
0.002135 0.000052 0
0.002045 0.000090 0
0.001888 0.000125 0
0.001671 0.000156 0
0.001406 0.000180 0
0.001105 0.000194 0
0.000789 0.000194 0
0.000485 0.000173 0
0.000227 0.000126 0
0.000054 0.000055 0
0.000000 -0.000000 0
0.000000 0.000000 0
-0.000105 0.000155 0
-0.000515 0.000523 0
-0.001260 0.000929 0
-0.002324 0.001294 0
-0.003659 0.001587 0
-0.005202 0.001793 0
-0.006881 0.001909 0
-0.008624 0.001938 0
-0.010359 0.001886 0
-0.012021 0.001761 0
-0.013551 0.001573 0
-0.014898 0.001334 0
-0.016022 0.001055 0
-0.016893 0.000750 0
-0.017490 0.000430 0
-0.017805 0.000107 0
-0.017836 -0.000207 0
-0.017592 -0.000505 0
-0.017091 -0.000777 0
-0.016354 -0.001017 0
-0.015410 -0.001221 0
-0.014291 -0.001385 0
-0.013033 -0.001507 0
-0.011670 -0.001589 0
-0.010238 -0.001632 0
-0.008771 -0.001637 0
-0.007302 -0.001610 0
-0.005859 -0.001552 0
-0.004468 -0.001469 0
-0.003152 -0.001365 0
-0.001928 -0.001244 0
-0.000814 -0.001109 0
0.000181 -0.000965 0
0.001047 -0.000813 0
0.001777 -0.000658 0
0.002367 -0.000500 0
0.002818 -0.000343 0
0.003127 -0.000188 0
0.003299 -0.000036 0
0.003336 0.000110 0
0.003245 0.000248 0
0.003035 0.000374 0
0.002719 0.000482 0
0.002314 0.000567 0
0.001846 0.000617 0
0.001347 0.000621 0
0.000858 0.000563 0
0.000432 0.000431 0
0.000125 0.000227 0
0.000000 0.000000 0
0.000000 0.000000 0
-0.000228 0.000512 0
-0.000907 0.001264 0
-0.002026 0.002048 0
-0.003545 0.002752 0
-0.005404 0.003320 0
-0.007525 0.003725 0
-0.009820 0.003958 0
-0.012198 0.004022 0
-0.014569 0.003924 0
-0.016849 0.003681 0
-0.018963 0.003310 0
-0.020842 0.002833 0
-0.022433 0.002275 0
-0.023693 0.001659 0
-0.024595 0.001011 0
-0.025121 0.000352 0
-0.025268 -0.000295 0
-0.025045 -0.000911 0
-0.024470 -0.001479 0
-0.023570 -0.001987 0
-0.022380 -0.002423 0
-0.020940 -0.002780 0
-0.019295 -0.003055 0
-0.017493 -0.003247 0
-0.015578 -0.003359 0
-0.013599 -0.003394 0
-0.011599 -0.003358 0
-0.009618 -0.003260 0
-0.007692 -0.003107 0
-0.005854 -0.002907 0
-0.004131 -0.002670 0
-0.002545 -0.002402 0
-0.001114 -0.002110 0
0.000148 -0.001802 0
0.001231 -0.001484 0
0.002128 -0.001160 0
0.002835 -0.000834 0
0.003353 -0.000512 0
0.003683 -0.000197 0
0.003832 0.000106 0
0.003806 0.000391 0
0.003619 0.000652 0
0.003288 0.000877 0
0.002835 0.001053 0
0.002291 0.001162 0
0.001697 0.001182 0
0.001104 0.001088 0
0.000572 0.000859 0
0.000174 0.000486 0
0.000000 0.000000 0
0.000000 0.000001 0
-0.000338 0.001062 0
-0.001270 0.002320 0
-0.002735 0.003566 0
-0.004669 0.004672 0
-0.006994 0.005566 0
-0.009619 0.006208 0
-0.012446 0.006582 0
-0.015370 0.006688 0
-0.018289 0.006538 0
-0.021106 0.006155 0
-0.023732 0.005565 0
-0.026088 0.004804 0
-0.028110 0.003906 0
-0.029744 0.002911 0
-0.030955 0.001857 0
-0.031718 0.000781 0
-0.032027 -0.000283 0
-0.031887 -0.001303 0
-0.031315 -0.002253 0
-0.030341 -0.003108 0
-0.029002 -0.003851 0
-0.027345 -0.004469 0
-0.025420 -0.004955 0
-0.023283 -0.005306 0
-0.020990 -0.005525 0
-0.018596 -0.005617 0
-0.016156 -0.005591 0
-0.013719 -0.005459 0
-0.011331 -0.005233 0
-0.009034 -0.004927 0
-0.006863 -0.004554 0
-0.004847 -0.004127 0
-0.003010 -0.003658 0
-0.001372 -0.003158 0
0.000055 -0.002637 0
0.001259 -0.002104 0
0.002236 -0.001568 0
0.002984 -0.001036 0
0.003504 -0.000514 0
0.003804 -0.000012 0
0.003892 0.000461 0
0.003783 0.000892 0
0.003496 0.001267 0
0.003058 0.001563 0
0.002504 0.001754 0
0.001879 0.001808 0
0.001238 0.001689 0
0.000650 0.001360 0
0.000201 0.000799 0
0.000000 0.000001 0
0.000000 0.000001 0
-0.000430 0.001781 0
-0.001584 0.003660 0
-0.003360 0.005446 0
-0.005669 0.007011 0
-0.008413 0.008270 0
-0.011489 0.009176 0
-0.014788 0.009708 0
-0.018197 0.009865 0
-0.021605 0.009660 0
-0.024904 0.009123 0
-0.027998 0.008292 0
-0.030798 0.007211 0
-0.033229 0.005931 0
-0.035232 0.004504 0
-0.036761 0.002985 0
-0.037787 0.001425 0
-0.038296 -0.000126 0
-0.038289 -0.001623 0
-0.037782 -0.003026 0
-0.036802 -0.004300 0
-0.035390 -0.005419 0
-0.033593 -0.006362 0
-0.031468 -0.007117 0
-0.029075 -0.007678 0
-0.026478 -0.008046 0
-0.023741 -0.008228 0
-0.020926 -0.008236 0
-0.018092 -0.008084 0
-0.015295 -0.007791 0
-0.012584 -0.007376 0
-0.010001 -0.006857 0
-0.007584 -0.006254 0
-0.005362 -0.005586 0
-0.003360 -0.004867 0
-0.001596 -0.004114 0
-0.000082 -0.003341 0
0.001174 -0.002559 0
0.002169 -0.001781 0
0.002904 -0.001017 0
0.003385 -0.000282 0
0.003622 0.000413 0
0.003632 0.001048 0
0.003434 0.001601 0
0.003059 0.002044 0
0.002542 0.002341 0
0.001931 0.002449 0
0.001285 0.002317 0
0.000680 0.001896 0
0.000211 0.001136 0
0.000000 0.000001 0
0.000000 0.000001 0
-0.000505 0.002645 0
-0.001849 0.005250 0
-0.003901 0.007650 0
-0.006544 0.009724 0
-0.009665 0.011386 0
-0.013150 0.012583 0
-0.016878 0.013289 0
-0.020729 0.013504 0
-0.024584 0.013245 0
-0.028331 0.012547 0
-0.031864 0.011458 0
-0.035088 0.010035 0
-0.037922 0.008340 0
-0.040296 0.006443 0
-0.042160 0.004412 0
-0.043475 0.002315 0
-0.044222 0.000219 0
-0.044396 -0.001818 0
-0.044007 -0.003740 0
-0.043082 -0.005500 0
-0.041658 -0.007060 0
-0.039786 -0.008391 0
-0.037523 -0.009473 0
-0.034935 -0.010296 0
-0.032091 -0.010859 0
-0.029062 -0.011169 0
-0.025920 -0.011240 0
-0.022731 -0.011089 0
-0.019559 -0.010742 0
-0.016462 -0.010221 0
-0.013490 -0.009554 0
-0.010688 -0.008766 0
-0.008092 -0.007881 0
-0.005731 -0.006924 0
-0.003628 -0.005916 0
-0.001799 -0.004875 0
-0.000252 -0.003819 0
0.001006 -0.002765 0
0.001976 -0.001730 0
0.002664 -0.000731 0
0.003081 0.000214 0
0.003241 0.001081 0
0.003168 0.001840 0
0.002891 0.002456 0
0.002447 0.002883 0
0.001886 0.003065 0
0.001270 0.002939 0
0.000678 0.002435 0
0.000211 0.001479 0
0.000000 0.000002 0
0.000000 0.000002 0
-0.000566 0.003629 0
-0.002072 0.007055 0
-0.004364 0.010141 0
-0.007305 0.012775 0
-0.010767 0.014876 0
-0.014623 0.016388 0
-0.018745 0.017287 0
-0.023005 0.017571 0
-0.027280 0.017262 0
-0.031450 0.016403 0
-0.035406 0.015048 0
-0.039046 0.013268 0
-0.042283 0.011139 0
-0.045042 0.008742 0
-0.047262 0.006163 0
-0.048899 0.003487 0
-0.049924 0.000794 0
-0.050326 -0.001838 0
-0.050110 -0.004340 0
-0.049297 -0.006649 0
-0.047921 -0.008716 0
-0.046031 -0.010498 0
-0.043686 -0.011968 0
-0.040955 -0.013110 0
-0.037912 -0.013918 0
-0.034633 -0.014399 0
-0.031198 -0.014567 0
-0.027681 -0.014445 0
-0.024156 -0.014060 0
-0.020689 -0.013445 0
-0.017338 -0.012631 0
-0.014156 -0.011652 0
-0.011185 -0.010542 0
-0.008461 -0.009331 0
-0.006010 -0.008047 0
-0.003853 -0.006717 0
-0.002000 -0.005363 0
-0.000460 -0.004009 0
0.000769 -0.002676 0
0.001689 -0.001386 0
0.002312 -0.000164 0
0.002654 0.000960 0
0.002736 0.001952 0
0.002589 0.002765 0
0.002250 0.003346 0
0.001769 0.003626 0
0.001209 0.003526 0
0.000653 0.002955 0
0.000205 0.001814 0
0.000000 0.000003 0
0.000000 0.000003 0
-0.000616 0.004716 0
-0.002260 0.009047 0
-0.004760 0.012883 0
-0.007966 0.016127 0
-0.011735 0.018704 0
-0.015931 0.020560 0
-0.020417 0.021671 0
-0.025060 0.022039 0
-0.029731 0.021690 0
-0.034308 0.020673 0
-0.038677 0.019054 0
-0.042732 0.016912 0
-0.046381 0.014336 0
-0.049541 0.011421 0
-0.052145 0.008269 0
-0.054141 0.004977 0
-0.055492 0.001646 0
-0.056176 -0.001632 0
-0.056191 -0.004769 0
-0.055551 -0.007690 0
-0.054285 -0.010326 0
-0.052438 -0.012626 0
-0.050069 -0.014549 0
-0.047247 -0.016071 0
-0.044049 -0.017181 0
-0.040558 -0.017883 0
-0.036859 -0.018191 0
-0.033037 -0.018131 0
-0.029172 -0.017734 0
-0.025341 -0.017039 0
-0.021611 -0.016087 0
-0.018043 -0.014919 0
-0.014686 -0.013576 0
-0.011584 -0.012099 0
-0.008767 -0.010524 0
-0.006260 -0.008884 0
-0.004078 -0.007212 0
-0.002229 -0.005534 0
-0.000715 -0.003879 0
0.000467 -0.002274 0
0.001328 -0.000750 0
0.001883 0.000657 0
0.002153 0.001905 0
0.002167 0.002943 0
0.001963 0.003703 0
0.001590 0.004106 0
0.001112 0.004055 0
0.000611 0.003439 0
0.000195 0.002132 0
0.000000 0.000003 0
0.000000 0.000003 0
-0.000658 0.005889 0
-0.002419 0.011198 0
-0.005100 0.015846 0
-0.008541 0.019750 0
-0.012587 0.022840 0
-0.017092 0.025069 0
-0.021915 0.026416 0
-0.026917 0.026885 0
-0.031967 0.026511 0
-0.036937 0.025348 0
-0.041713 0.023472 0
-0.046185 0.020971 0
-0.050257 0.017947 0
-0.053841 0.014507 0
-0.056863 0.010764 0
-0.059261 0.006833 0
-0.060989 0.002828 0
-0.062015 -0.001139 0
-0.062328 -0.004965 0
-0.061931 -0.008556 0
-0.060846 -0.011828 0
-0.059112 -0.014714 0
-0.056783 -0.017160 0
-0.053929 -0.019130 0
-0.050627 -0.020607 0
-0.046966 -0.021589 0
-0.043035 -0.022088 0
-0.038929 -0.022132 0
-0.034736 -0.021756 0
-0.030542 -0.021006 0
-0.026427 -0.019929 0
-0.022458 -0.018577 0
-0.018697 -0.017001 0
-0.015190 -0.015250 0
-0.011979 -0.013371 0
-0.009090 -0.011406 0
-0.006543 -0.009394 0
-0.004350 -0.007371 0
-0.002514 -0.005372 0
-0.001031 -0.003429 0
0.000106 -0.001579 0
0.000912 0.000136 0
0.001407 0.001668 0
0.001619 0.002955 0
0.001584 0.003923 0
0.001350 0.004477 0
0.000979 0.004504 0
0.000554 0.003871 0
0.000182 0.002426 0
0.000000 0.000004 0
0.000000 0.000004 0
-0.000693 0.007134 0
-0.002554 0.013489 0
-0.005393 0.019004 0
-0.009041 0.023613 0
-0.013336 0.027255 0
-0.018124 0.029888 0
-0.023258 0.031496 0
-0.028597 0.032090 0
-0.034006 0.031710 0
-0.039357 0.030419 0
-0.044534 0.028301 0
-0.049426 0.025455 0
-0.053934 0.021991 0
-0.057966 0.018028 0
-0.061441 0.013689 0
-0.064289 0.009103 0
-0.066452 0.004400 0
-0.067889 -0.000293 0
-0.068575 -0.004854 0
-0.068501 -0.009172 0
-0.067680 -0.013146 0
-0.066141 -0.016688 0
-0.063933 -0.019732 0
-0.061119 -0.022227 0
-0.057778 -0.024145 0
-0.053999 -0.025475 0
-0.049878 -0.026229 0
-0.045515 -0.026431 0
-0.041009 -0.026120 0
-0.036457 -0.025348 0
-0.031947 -0.024171 0
-0.027559 -0.022649 0
-0.023365 -0.020844 0
-0.019421 -0.018817 0
-0.015774 -0.016624 0
-0.012460 -0.014320 0
-0.009502 -0.011951 0
-0.006916 -0.009564 0
-0.004707 -0.007197 0
-0.002875 -0.004893 0
-0.001412 -0.002693 0
-0.000306 -0.000644 0
0.000463 0.001199 0
0.000918 0.002766 0
0.001095 0.003972 0
0.001038 0.004710 0
0.000806 0.004851 0
0.000479 0.004236 0
0.000164 0.002687 0
0.000000 0.000005 0
0.000000 0.000004 0
-0.000722 0.008441 0
-0.002668 0.015899 0
-0.005645 0.022333 0
-0.009476 0.027692 0
-0.013993 0.031923 0
-0.019038 0.034992 0
-0.024459 0.036889 0
-0.030112 0.037632 0
-0.035861 0.037271 0
-0.041579 0.035876 0
-0.047150 0.033540 0
-0.052463 0.030371 0
-0.057418 0.026486 0
-0.061920 0.022014 0
-0.065883 0.017087 0
-0.069230 0.011844 0
-0.071891 0.006429 0
-0.073813 0.000983 0
-0.074955 -0.004353 0
-0.075297 -0.009451 0
-0.074838 -0.014188 0
-0.073594 -0.018461 0
-0.071603 -0.022182 0
-0.068922 -0.025285 0
-0.065624 -0.027727 0
-0.061799 -0.029489 0
-0.057545 -0.030572 0
-0.052967 -0.031001 0
-0.048175 -0.030815 0
-0.043274 -0.030068 0
-0.038364 -0.028826 0
-0.033540 -0.027159 0
-0.028882 -0.025139 0
-0.024459 -0.022841 0
-0.020328 -0.020332 0
-0.016532 -0.017678 0
-0.013103 -0.014938 0
-0.010060 -0.012166 0
-0.007414 -0.009413 0
-0.005166 -0.006724 0
-0.003313 -0.004148 0
-0.001842 -0.001738 0
-0.000738 0.000444 0
0.000020 0.002323 0
0.000462 0.003804 0
0.000630 0.004767 0
0.000577 0.005063 0
0.000379 0.004513 0
0.000140 0.002905 0
0.000000 0.000005 0
0.000000 0.000005 0
-0.000747 0.009802 0
-0.002766 0.018412 0
-0.005862 0.025812 0
-0.009854 0.031961 0
-0.014569 0.036817 0
-0.019846 0.040354 0
-0.025528 0.042569 0
-0.031471 0.043491 0
-0.037539 0.043177 0
-0.043607 0.041708 0
-0.049560 0.039185 0
-0.055291 0.035723 0
-0.060700 0.031448 0
-0.065691 0.026493 0
-0.070175 0.020998 0
-0.074066 0.015111 0
-0.077288 0.008983 0
-0.079771 0.002771 0
-0.081462 -0.003370 0
-0.082323 -0.009290 0
-0.082336 -0.014849 0
-0.081502 -0.019924 0
-0.079846 -0.024404 0
-0.077412 -0.028206 0
-0.074265 -0.031267 0
-0.070489 -0.033555 0
-0.066183 -0.035060 0
-0.061455 -0.035800 0
-0.056420 -0.035814 0
-0.051195 -0.035159 0
-0.045893 -0.033904 0
-0.040618 -0.032132 0
-0.035466 -0.029925 0
-0.030521 -0.027370 0
-0.025849 -0.024551 0
-0.021506 -0.021545 0
-0.017532 -0.018423 0
-0.013954 -0.015252 0
-0.010788 -0.012091 0
-0.008042 -0.008994 0
-0.005714 -0.006017 0
-0.003798 -0.003218 0
-0.002279 -0.000663 0
-0.001142 0.001565 0
-0.000363 0.003362 0
0.000093 0.004596 0
0.000273 0.005101 0
0.000245 0.004673 0
0.000108 0.003066 0
0.000000 0.000005 0
0.000000 0.000006 0
-0.000767 0.011207 0
-0.002849 0.021014 0
-0.006048 0.029421 0
-0.010180 0.036399 0
-0.015071 0.041915 0
-0.020554 0.045950 0
-0.026472 0.048514 0
-0.032680 0.049643 0
-0.039043 0.049407 0
-0.045440 0.047897 0
-0.051759 0.045224 0
-0.057899 0.041510 0
-0.063761 0.036886 0
-0.069252 0.031489 0
-0.074282 0.025462 0
-0.078760 0.018957 0
-0.082599 0.012133 0
-0.085721 0.005157 0
-0.088053 -0.001802 0
-0.089542 -0.008577 0
-0.090149 -0.015009 0
-0.089858 -0.020950 0
-0.088673 -0.026272 0
-0.086623 -0.030866 0
-0.083760 -0.034650 0
-0.080158 -0.037571 0
-0.075910 -0.039607 0
-0.071123 -0.040763 0
-0.065917 -0.041074 0
-0.060416 -0.040596 0
-0.054744 -0.039403 0
-0.049019 -0.037585 0
-0.043353 -0.035237 0
-0.037843 -0.032458 0
-0.032572 -0.029346 0
-0.027609 -0.025995 0
-0.023005 -0.022490 0
-0.018799 -0.018910 0
-0.015015 -0.015324 0
-0.011668 -0.011798 0
-0.008762 -0.008393 0
-0.006296 -0.005173 0
-0.004262 -0.002211 0
-0.002650 0.000407 0
-0.001443 0.002569 0
-0.000617 0.004131 0
-0.000135 0.004911 0
0.000063 0.004678 0
0.000063 0.003150 0
0.000000 0.000006 0
0.000000 0.000006 0
-0.000784 0.012650 0
-0.002918 0.023692 0
-0.006206 0.033143 0
-0.010461 0.040984 0
-0.015505 0.047191 0
-0.021170 0.051755 0
-0.027297 0.054695 0
-0.033743 0.056062 0
-0.040374 0.055937 0
-0.047074 0.054424 0
-0.053738 0.051643 0
-0.060268 0.047724 0
-0.066574 0.042801 0
-0.072567 0.037014 0
-0.078157 0.030506 0
-0.083253 0.023429 0
-0.087760 0.015944 0
-0.091590 0.008225 0
-0.094655 0.000451 0
-0.096880 -0.007194 0
-0.098208 -0.014534 0
-0.098601 -0.021400 0
-0.098040 -0.027639 0
-0.096534 -0.033118 0
-0.094114 -0.037732 0
-0.090839 -0.041405 0
-0.086791 -0.044095 0
-0.082070 -0.045793 0
-0.076796 -0.046521 0
-0.071097 -0.046332 0
-0.065105 -0.045301 0
-0.058954 -0.043522 0
-0.052768 -0.041101 0
-0.046662 -0.038151 0
-0.040737 -0.034785 0
-0.035079 -0.031112 0
-0.029754 -0.027233 0
-0.024815 -0.023242 0
-0.020298 -0.019222 0
-0.016229 -0.015247 0
-0.012621 -0.011389 0
-0.009480 -0.007718 0
-0.006807 -0.004309 0
-0.004600 -0.001254 0
-0.002852 0.001329 0
-0.001553 0.003287 0
-0.000678 0.004421 0
-0.000184 0.004475 0
0.000001 0.003129 0
0.000000 0.000005 0
0.000000 0.000007 0
-0.000798 0.014124 0
-0.002977 0.026436 0
-0.006340 0.036963 0
-0.010700 0.045697 0
-0.015877 0.052623 0
-0.021700 0.057743 0
-0.028010 0.061086 0
-0.034664 0.062720 0
-0.041534 0.062739 0
-0.048506 0.061261 0
-0.055484 0.058418 0
-0.062380 0.054347 0
-0.069110 0.049185 0
-0.075594 0.043071 0
-0.081745 0.036147 0
-0.087474 0.028560 0
-0.092685 0.020471 0
-0.097279 0.012051 0
-0.101156 0.003488 0
-0.104221 -0.005023 0
-0.106396 -0.013288 0
-0.107618 -0.021118 0
-0.107844 -0.028339 0
-0.107056 -0.034792 0
-0.105261 -0.040344 0
-0.102494 -0.044895 0
-0.098820 -0.048376 0
-0.094326 -0.050758 0
-0.089124 -0.052047 0
-0.083341 -0.052287 0
-0.077115 -0.051546 0
-0.070589 -0.049922 0
-0.063903 -0.047528 0
-0.057190 -0.044488 0
-0.050569 -0.040930 0
-0.044146 -0.036978 0
-0.038008 -0.032754 0
-0.032225 -0.028365 0
-0.026850 -0.023909 0
-0.021922 -0.019475 0
-0.017468 -0.015142 0
-0.013505 -0.010987 0
-0.010047 -0.007090 0
-0.007101 -0.003547 0
-0.004675 -0.000478 0
-0.002774 0.001957 0
-0.001395 0.003543 0
-0.000515 0.003999 0
-0.000085 0.002966 0
0.000000 0.000005 0
0.000000 0.000008 0
-0.000809 0.015626 0
-0.003026 0.029234 0
-0.006453 0.040866 0
-0.010903 0.050520 0
-0.016193 0.058190 0
-0.022151 0.063888 0
-0.028618 0.067659 0
-0.035450 0.069585 0
-0.042523 0.069779 0
-0.049733 0.068375 0
-0.056990 0.065517 0
-0.064216 0.061350 0
-0.071339 0.056015 0
-0.078287 0.049648 0
-0.084985 0.042386 0
-0.091346 0.034369 0
-0.097276 0.025749 0
-0.102671 0.016695 0
-0.107421 0.007394 0
-0.111416 -0.001953 0
-0.114553 -0.011137 0
-0.116743 -0.019952 0
-0.117918 -0.028201 0
-0.118029 -0.035702 0
-0.117053 -0.042294 0
-0.114998 -0.047846 0
-0.111901 -0.052263 0
-0.107828 -0.055488 0
-0.102877 -0.057506 0
-0.097165 -0.058341 0
-0.090830 -0.058052 0
-0.084021 -0.056734 0
-0.076889 -0.054500 0
-0.069585 -0.051485 0
-0.062249 -0.047828 0
-0.055009 -0.043672 0
-0.047974 -0.039154 0
-0.041237 -0.034400 0
-0.034872 -0.029524 0
-0.028938 -0.024630 0
-0.023479 -0.019806 0
-0.018529 -0.015139 0
-0.014116 -0.010713 0
-0.010265 -0.006625 0
-0.007001 -0.002997 0
-0.004347 0.000007 0
-0.002328 0.002163 0
-0.000952 0.003165 0
-0.000200 0.002614 0
0.000000 0.000004 0
0.000000 0.000008 0
-0.000818 0.017149 0
-0.003066 0.032080 0
-0.006549 0.044840 0
-0.011075 0.055437 0
-0.016461 0.063871 0
-0.022531 0.070167 0
-0.029127 0.074385 0
-0.036105 0.076625 0
-0.043347 0.077022 0
-0.050754 0.075727 0
-0.058247 0.072900 0
-0.065759 0.068696 0
-0.073232 0.063257 0
-0.080607 0.056717 0
-0.087817 0.049205 0
-0.094788 0.040851 0
-0.101429 0.031795 0
-0.107638 0.022197 0
-0.113298 0.012234 0
-0.118287 0.002109 0
-0.122480 -0.007961 0
-0.125761 -0.017753 0
-0.128035 -0.027053 0
-0.129222 -0.035656 0
-0.129265 -0.043375 0
-0.128136 -0.050047 0
-0.125838 -0.055545 0
-0.122410 -0.059781 0
-0.117922 -0.062711 0
-0.112476 -0.064333 0
-0.106201 -0.064690 0
-0.099243 -0.063863 0
-0.091762 -0.061964 0
-0.083923 -0.059128 0
-0.075885 -0.055506 0
-0.067799 -0.051254 0
-0.059803 -0.046525 0
-0.052014 -0.041466 0
-0.044533 -0.036208 0
-0.037444 -0.030868 0
-0.030813 -0.025551 0
-0.024696 -0.020350 0
-0.019143 -0.015354 0
-0.014199 -0.010663 0
-0.009913 -0.006396 0
-0.006336 -0.002716 0
-0.003520 0.000148 0
-0.001517 0.001871 0
-0.000352 0.002014 0
0.000000 0.000003 0
0.000000 0.000009 0
-0.000826 0.018692 0
-0.003101 0.034965 0
-0.006630 0.048874 0
-0.011221 0.060432 0
-0.016687 0.069647 0
-0.022849 0.076554 0
-0.029547 0.081233 0
-0.036639 0.083805 0
-0.044011 0.084428 0
-0.051573 0.083275 0
-0.059254 0.080522 0
-0.067002 0.076335 0
-0.074771 0.070862 0
-0.082517 0.064233 0
-0.090190 0.056567 0
-0.097726 0.047981 0
-0.105046 0.038599 0
-0.112052 0.028565 0
-0.118627 0.018043 0
-0.124641 0.007228 0
-0.129953 -0.003663 0