# vtk DataFile Version 2.0
generated by CFD-lab course output (written by Tobias Neckel) 
ASCII

DATASET STRUCTURED_GRID
DIMENSIONS  51 51 1 
POINTS 2601 float

0.000000 0.000000 0
0.020000 0.000000 0
0.040000 0.000000 0
0.060000 0.000000 0
0.080000 0.000000 0
0.100000 0.000000 0
0.120000 0.000000 0
0.140000 0.000000 0
0.160000 0.000000 0
0.180000 0.000000 0
0.200000 0.000000 0
0.220000 0.000000 0
0.240000 0.000000 0
0.260000 0.000000 0
0.280000 0.000000 0
0.300000 0.000000 0
0.320000 0.000000 0
0.340000 0.000000 0
0.360000 0.000000 0
0.380000 0.000000 0
0.400000 0.000000 0
0.420000 0.000000 0
0.440000 0.000000 0
0.460000 0.000000 0
0.480000 0.000000 0
0.500000 0.000000 0
0.520000 0.000000 0
0.540000 0.000000 0
0.560000 0.000000 0
0.580000 0.000000 0
0.600000 0.000000 0
0.620000 0.000000 0
0.640000 0.000000 0
0.660000 0.000000 0
0.680000 0.000000 0
0.700000 0.000000 0
0.720000 0.000000 0
0.740000 0.000000 0
0.760000 0.000000 0
0.780000 0.000000 0
0.800000 0.000000 0
0.820000 0.000000 0
0.840000 0.000000 0
0.860000 0.000000 0
0.880000 0.000000 0
0.900000 0.000000 0
0.920000 0.000000 0
0.940000 0.000000 0
0.960000 0.000000 0
0.980000 0.000000 0
1.000000 0.000000 0
0.000000 0.020000 0
0.020000 0.020000 0
0.040000 0.020000 0
0.060000 0.020000 0
0.080000 0.020000 0
0.100000 0.020000 0
0.120000 0.020000 0
0.140000 0.020000 0
0.160000 0.020000 0
0.180000 0.020000 0
0.200000 0.020000 0
0.220000 0.020000 0
0.240000 0.020000 0
0.260000 0.020000 0
0.280000 0.020000 0
0.300000 0.020000 0
0.320000 0.020000 0
0.340000 0.020000 0
0.360000 0.020000 0
0.380000 0.020000 0
0.400000 0.020000 0
0.420000 0.020000 0
0.440000 0.020000 0
0.460000 0.020000 0
0.480000 0.020000 0
0.500000 0.020000 0
0.520000 0.020000 0
0.540000 0.020000 0
0.560000 0.020000 0
0.580000 0.020000 0
0.600000 0.020000 0
0.620000 0.020000 0
0.640000 0.020000 0
0.660000 0.020000 0
0.680000 0.020000 0
0.700000 0.020000 0
0.720000 0.020000 0
0.740000 0.020000 0
0.760000 0.020000 0
0.780000 0.020000 0
0.800000 0.020000 0
0.820000 0.020000 0
0.840000 0.020000 0
0.860000 0.020000 0
0.880000 0.020000 0
0.900000 0.020000 0
0.920000 0.020000 0
0.940000 0.020000 0
0.960000 0.020000 0
0.980000 0.020000 0
1.000000 0.020000 0
0.000000 0.040000 0
0.020000 0.040000 0
0.040000 0.040000 0
0.060000 0.040000 0
0.080000 0.040000 0
0.100000 0.040000 0
0.120000 0.040000 0
0.140000 0.040000 0
0.160000 0.040000 0
0.180000 0.040000 0
0.200000 0.040000 0
0.220000 0.040000 0
0.240000 0.040000 0
0.260000 0.040000 0
0.280000 0.040000 0
0.300000 0.040000 0
0.320000 0.040000 0
0.340000 0.040000 0
0.360000 0.040000 0
0.380000 0.040000 0
0.400000 0.040000 0
0.420000 0.040000 0
0.440000 0.040000 0
0.460000 0.040000 0
0.480000 0.040000 0
0.500000 0.040000 0
0.520000 0.040000 0
0.540000 0.040000 0
0.560000 0.040000 0
0.580000 0.040000 0
0.600000 0.040000 0
0.620000 0.040000 0
0.640000 0.040000 0
0.660000 0.040000 0
0.680000 0.040000 0
0.700000 0.040000 0
0.720000 0.040000 0
0.740000 0.040000 0
0.760000 0.040000 0
0.780000 0.040000 0
0.800000 0.040000 0
0.820000 0.040000 0
0.840000 0.040000 0
0.860000 0.040000 0
0.880000 0.040000 0
0.900000 0.040000 0
0.920000 0.040000 0
0.940000 0.040000 0
0.960000 0.040000 0
0.980000 0.040000 0
1.000000 0.040000 0
0.000000 0.060000 0
0.020000 0.060000 0
0.040000 0.060000 0
0.060000 0.060000 0
0.080000 0.060000 0
0.100000 0.060000 0
0.120000 0.060000 0
0.140000 0.060000 0
0.160000 0.060000 0
0.180000 0.060000 0
0.200000 0.060000 0
0.220000 0.060000 0
0.240000 0.060000 0
0.260000 0.060000 0
0.280000 0.060000 0
0.300000 0.060000 0
0.320000 0.060000 0
0.340000 0.060000 0
0.360000 0.060000 0
0.380000 0.060000 0
0.400000 0.060000 0
0.420000 0.060000 0
0.440000 0.060000 0
0.460000 0.060000 0
0.480000 0.060000 0
0.500000 0.060000 0
0.520000 0.060000 0
0.540000 0.060000 0
0.560000 0.060000 0
0.580000 0.060000 0
0.600000 0.060000 0
0.620000 0.060000 0
0.640000 0.060000 0
0.660000 0.060000 0
0.680000 0.060000 0
0.700000 0.060000 0
0.720000 0.060000 0
0.740000 0.060000 0
0.760000 0.060000 0
0.780000 0.060000 0
0.800000 0.060000 0
0.820000 0.060000 0
0.840000 0.060000 0
0.860000 0.060000 0
0.880000 0.060000 0
0.900000 0.060000 0
0.920000 0.060000 0
0.940000 0.060000 0
0.960000 0.060000 0
0.980000 0.060000 0
1.000000 0.060000 0
0.000000 0.080000 0
0.020000 0.080000 0
0.040000 0.080000 0
0.060000 0.080000 0
0.080000 0.080000 0
0.100000 0.080000 0
0.120000 0.080000 0
0.140000 0.080000 0
0.160000 0.080000 0
0.180000 0.080000 0
0.200000 0.080000 0
0.220000 0.080000 0
0.240000 0.080000 0
0.260000 0.080000 0
0.280000 0.080000 0
0.300000 0.080000 0
0.320000 0.080000 0
0.340000 0.080000 0
0.360000 0.080000 0
0.380000 0.080000 0
0.400000 0.080000 0
0.420000 0.080000 0
0.440000 0.080000 0
0.460000 0.080000 0
0.480000 0.080000 0
0.500000 0.080000 0
0.520000 0.080000 0
0.540000 0.080000 0
0.560000 0.080000 0
0.580000 0.080000 0
0.600000 0.080000 0
0.620000 0.080000 0
0.640000 0.080000 0
0.660000 0.080000 0
0.680000 0.080000 0
0.700000 0.080000 0
0.720000 0.080000 0
0.740000 0.080000 0
0.760000 0.080000 0
0.780000 0.080000 0
0.800000 0.080000 0
0.820000 0.080000 0
0.840000 0.080000 0
0.860000 0.080000 0
0.880000 0.080000 0
0.900000 0.080000 0
0.920000 0.080000 0
0.940000 0.080000 0
0.960000 0.080000 0
0.980000 0.080000 0
1.000000 0.080000 0
0.000000 0.100000 0
0.020000 0.100000 0
0.040000 0.100000 0
0.060000 0.100000 0
0.080000 0.100000 0
0.100000 0.100000 0
0.120000 0.100000 0
0.140000 0.100000 0
0.160000 0.100000 0
0.180000 0.100000 0
0.200000 0.100000 0
0.220000 0.100000 0
0.240000 0.100000 0
0.260000 0.100000 0
0.280000 0.100000 0
0.300000 0.100000 0
0.320000 0.100000 0
0.340000 0.100000 0
0.360000 0.100000 0
0.380000 0.100000 0
0.400000 0.100000 0
0.420000 0.100000 0
0.440000 0.100000 0
0.460000 0.100000 0
0.480000 0.100000 0
0.500000 0.100000 0
0.520000 0.100000 0
0.540000 0.100000 0
0.560000 0.100000 0
0.580000 0.100000 0
0.600000 0.100000 0
0.620000 0.100000 0
0.640000 0.100000 0
0.660000 0.100000 0
0.680000 0.100000 0
0.700000 0.100000 0
0.720000 0.100000 0
0.740000 0.100000 0
0.760000 0.100000 0
0.780000 0.100000 0
0.800000 0.100000 0
0.820000 0.100000 0
0.840000 0.100000 0
0.860000 0.100000 0
0.880000 0.100000 0
0.900000 0.100000 0
0.920000 0.100000 0
0.940000 0.100000 0
0.960000 0.100000 0
0.980000 0.100000 0
1.000000 0.100000 0
0.000000 0.120000 0
0.020000 0.120000 0
0.040000 0.120000 0
0.060000 0.120000 0
0.080000 0.120000 0
0.100000 0.120000 0
0.120000 0.120000 0
0.140000 0.120000 0
0.160000 0.120000 0
0.180000 0.120000 0
0.200000 0.120000 0
0.220000 0.120000 0
0.240000 0.120000 0
0.260000 0.120000 0
0.280000 0.120000 0
0.300000 0.120000 0
0.320000 0.120000 0
0.340000 0.120000 0
0.360000 0.120000 0
0.380000 0.120000 0
0.400000 0.120000 0
0.420000 0.120000 0
0.440000 0.120000 0
0.460000 0.120000 0
0.480000 0.120000 0
0.500000 0.120000 0
0.520000 0.120000 0
0.540000 0.120000 0
0.560000 0.120000 0
0.580000 0.120000 0
0.600000 0.120000 0
0.620000 0.120000 0
0.640000 0.120000 0
0.660000 0.120000 0
0.680000 0.120000 0
0.700000 0.120000 0
0.720000 0.120000 0
0.740000 0.120000 0
0.760000 0.120000 0
0.780000 0.120000 0
0.800000 0.120000 0
0.820000 0.120000 0
0.840000 0.120000 0
0.860000 0.120000 0
0.880000 0.120000 0
0.900000 0.120000 0
0.920000 0.120000 0
0.940000 0.120000 0
0.960000 0.120000 0
0.980000 0.120000 0
1.000000 0.120000 0
0.000000 0.140000 0
0.020000 0.140000 0
0.040000 0.140000 0
0.060000 0.140000 0
0.080000 0.140000 0
0.100000 0.140000 0
0.120000 0.140000 0
0.140000 0.140000 0
0.160000 0.140000 0
0.180000 0.140000 0
0.200000 0.140000 0
0.220000 0.140000 0
0.240000 0.140000 0
0.260000 0.140000 0
0.280000 0.140000 0
0.300000 0.140000 0
0.320000 0.140000 0
0.340000 0.140000 0
0.360000 0.140000 0
0.380000 0.140000 0
0.400000 0.140000 0
0.420000 0.140000 0
0.440000 0.140000 0
0.460000 0.140000 0
0.480000 0.140000 0
0.500000 0.140000 0
0.520000 0.140000 0
0.540000 0.140000 0
0.560000 0.140000 0
0.580000 0.140000 0
0.600000 0.140000 0
0.620000 0.140000 0
0.640000 0.140000 0
0.660000 0.140000 0
0.680000 0.140000 0
0.700000 0.140000 0
0.720000 0.140000 0
0.740000 0.140000 0
0.760000 0.140000 0
0.780000 0.140000 0
0.800000 0.140000 0
0.820000 0.140000 0
0.840000 0.140000 0
0.860000 0.140000 0
0.880000 0.140000 0
0.900000 0.140000 0
0.920000 0.140000 0
0.940000 0.140000 0
0.960000 0.140000 0
0.980000 0.140000 0
1.000000 0.140000 0
0.000000 0.160000 0
0.020000 0.160000 0
0.040000 0.160000 0
0.060000 0.160000 0
0.080000 0.160000 0
0.100000 0.160000 0
0.120000 0.160000 0
0.140000 0.160000 0
0.160000 0.160000 0
0.180000 0.160000 0
0.200000 0.160000 0
0.220000 0.160000 0
0.240000 0.160000 0
0.260000 0.160000 0
0.280000 0.160000 0
0.300000 0.160000 0
0.320000 0.160000 0
0.340000 0.160000 0
0.360000 0.160000 0
0.380000 0.160000 0
0.400000 0.160000 0
0.420000 0.160000 0
0.440000 0.160000 0
0.460000 0.160000 0
0.480000 0.160000 0
0.500000 0.160000 0
0.520000 0.160000 0
0.540000 0.160000 0
0.560000 0.160000 0
0.580000 0.160000 0
0.600000 0.160000 0
0.620000 0.160000 0
0.640000 0.160000 0
0.660000 0.160000 0
0.680000 0.160000 0
0.700000 0.160000 0
0.720000 0.160000 0
0.740000 0.160000 0
0.760000 0.160000 0
0.780000 0.160000 0
0.800000 0.160000 0
0.820000 0.160000 0
0.840000 0.160000 0
0.860000 0.160000 0
0.880000 0.160000 0
0.900000 0.160000 0
0.920000 0.160000 0
0.940000 0.160000 0
0.960000 0.160000 0
0.980000 0.160000 0
1.000000 0.160000 0
0.000000 0.180000 0
0.020000 0.180000 0
0.040000 0.180000 0
0.060000 0.180000 0
0.080000 0.180000 0
0.100000 0.180000 0
0.120000 0.180000 0
0.140000 0.180000 0
0.160000 0.180000 0
0.180000 0.180000 0
0.200000 0.180000 0
0.220000 0.180000 0
0.240000 0.180000 0
0.260000 0.180000 0
0.280000 0.180000 0
0.300000 0.180000 0
0.320000 0.180000 0
0.340000 0.180000 0
0.360000 0.180000 0
0.380000 0.180000 0
0.400000 0.180000 0
0.420000 0.180000 0
0.440000 0.180000 0
0.460000 0.180000 0
0.480000 0.180000 0
0.500000 0.180000 0
0.520000 0.180000 0
0.540000 0.180000 0
0.560000 0.180000 0
0.580000 0.180000 0
0.600000 0.180000 0
0.620000 0.180000 0
[...]
POINT_DATA 2601 

VECTORS velocity float
0.000000 0.000000 0
0.000000 0.000000 0
0.000000 0.000000 0
0.000000 0.000000 0
0.000000 0.000000 0
-0.000000 0.000000 0
-0.000000 0.000000 0
-0.000000 0.000000 0
-0.000000 0.000000 0
0.000000 0.000000 0
0.000000 0.000000 0
0.000000 0.000000 0
-0.000000 0.000000 0
-0.000000 0.000000 0
-0.000000 0.000000 0
-0.000000 0.000000 0
-0.000000 0.000000 0
-0.000000 0.000000 0
-0.000000 0.000000 0
-0.000000 0.000000 0
-0.000000 0.000000 0
0.000000 0.000000 0
0.000000 0.000000 0
0.000000 0.000000 0
0.000000 0.000000 0
-0.000000 0.000000 0
-0.000000 0.000000 0
-0.000000 0.000000 0
-0.000000 0.000000 0
-0.000000 0.000000 0
0.000000 0.000000 0
0.000000 0.000000 0
0.000000 0.000000 0
0.000000 0.000000 0
0.000000 0.000000 0
0.000000 0.000000 0
0.000000 0.000000 0
-0.000000 0.000000 0
-0.000000 0.000000 0
-0.000000 0.000000 0
-0.000000 0.000000 0
-0.000000 0.000000 0
0.000000 0.000000 0
0.000000 0.000000 0
0.000000 0.000000 0
0.000000 0.000000 0
0.000000 0.000000 0
0.000000 0.000000 0
0.000000 0.000000 0
0.000000 0.000000 0
0.000000 0.000000 0
0.000000 -0.000000 0
-0.000006 0.000010 0
-0.000355 0.000247 0
-0.001130 0.000511 0
-0.002293 0.000729 0
-0.003754 0.000878 0
-0.005394 0.000949 0
-0.007088 0.000944 0
-0.008720 0.000872 0
-0.010184 0.000745 0
-0.011399 0.000577 0
-0.012305 0.000382 0
-0.012867 0.000176 0
-0.013072 -0.000030 0
-0.012926 -0.000226 0
-0.012448 -0.000405 0
-0.011669 -0.000561 0
-0.010630 -0.000690 0
-0.009375 -0.000792 0
-0.007951 -0.000865 0
-0.006408 -0.000910 0
-0.004792 -0.000929 0
-0.003149 -0.000923 0
-0.001521 -0.000895 0
0.000055 -0.000847 0
0.001545 -0.000784 0
0.002922 -0.000708 0
0.004166 -0.000623 0
0.005259 -0.000532 0
0.006191 -0.000437 0
0.006957 -0.000341 0
0.007553 -0.000246 0
0.007983 -0.000153 0
0.008250 -0.000065 0
0.008362 0.000018 0
0.008327 0.000095 0
0.008156 0.000167 0
0.007858 0.000232 0
0.007445 0.000292 0
0.006927 0.000346 0
0.006316 0.000393 0
0.005624 0.000434 0
0.004865 0.000466 0
0.004058 0.000487 0
0.003224 0.000493 0
0.002394 0.000478 0
0.001610 0.000434 0
0.000921 0.000351 0
0.000389 0.000225 0
0.000074 0.000073 0
0.000000 0.000000 0
0.000000 0.000000 0
-0.000229 0.000356 0
-0.001094 0.001124 0
-0.002638 0.001938 0
-0.004795 0.002624 0
-0.007424 0.003100 0
-0.010343 0.003334 0
-0.013356 0.003326 0
-0.016271 0.003096 0
-0.018915 0.002679 0
-0.021148 0.002120 0
-0.022866 0.001468 0
-0.024005 0.000767 0
-0.024534 0.000059 0
-0.024455 -0.000624 0
-0.023795 -0.001257 0
-0.022600 -0.001818 0
-0.020931 -0.002295 0
-0.018861 -0.002679 0
-0.016467 -0.002967 0
-0.013831 -0.003159 0
-0.011034 -0.003258 0
-0.008156 -0.003271 0
-0.005270 -0.003204 0
-0.002445 -0.003066 0
0.000261 -0.002868 0
0.002793 -0.002621 0
0.005110 -0.002336 0
0.007178 -0.002025 0
0.008974 -0.001698 0
0.010484 -0.001362 0
0.011700 -0.001026 0
0.012622 -0.000697 0
0.013254 -0.000379 0
0.013608 -0.000077 0
0.013695 0.000206 0
0.013532 0.000469 0
0.013138 0.000711 0
0.012530 0.000931 0
0.011729 0.001129 0
0.010756 0.001303 0
0.009635 0.001451 0
0.008391 0.001566 0
0.007057 0.001641 0
0.005673 0.001663 0
0.004289 0.001614 0
0.002970 0.001474 0
0.001794 0.001221 0
0.000850 0.000847 0
0.000227 0.000389 0
0.000000 0.000000 0
0.000000 0.000000 0
-0.000474 0.001104 0
-0.001875 0.002656 0
-0.004153 0.004211 0
-0.007192 0.005515 0
-0.010814 0.006426 0
-0.014798 0.006882 0
-0.018903 0.006872 0
-0.022890 0.006431 0
-0.026544 0.005622 0
-0.029684 0.004528 0
-0.032175 0.003239 0
-0.033927 0.001844 0
-0.034893 0.000421 0
-0.035066 -0.000965 0
-0.034471 -0.002260 0
-0.033160 -0.003425 0
-0.031203 -0.004430 0
-0.028684 -0.005256 0
-0.025702 -0.005895 0
-0.022355 -0.006342 0
-0.018749 -0.006603 0
-0.014984 -0.006687 0
-0.011160 -0.006606 0
-0.007367 -0.006378 0
-0.003688 -0.006022 0
-0.000195 -0.005557 0
0.003048 -0.005008 0
0.005991 -0.004396 0
0.008595 -0.003743 0
0.010835 -0.003067 0
0.012695 -0.002384 0
0.014170 -0.001708 0
0.015260 -0.001051 0
0.015976 -0.000423 0
0.016332 0.000171 0
0.016346 0.000724 0
0.016040 0.001235 0
0.015440 0.001700 0
0.014572 0.002119 0
0.013465 0.002488 0
0.012150 0.002799 0
0.010662 0.003044 0
0.009045 0.003205 0
0.007347 0.003261 0
0.005632 0.003181 0
0.003977 0.002929 0
0.002472 0.002471 0
0.001225 0.001792 0
0.000355 0.000923 0
0.000000 0.000000 0
0.000000 0.000000 0
-0.000688 0.002231 0
-0.002575 0.004801 0
-0.005518 0.007254 0
-0.009345 0.009286 0
-0.013841 0.010707 0
-0.018752 0.011424 0
-0.023808 0.011418 0
-0.028742 0.010737 0
-0.033310 0.009473 0
-0.037304 0.007752 0
-0.040565 0.005710 0
-0.042983 0.003484 0
-0.044497 0.001198 0
-0.045087 -0.001046 0
-0.044774 -0.003162 0
-0.043605 -0.005087 0
-0.041651 -0.006770 0
-0.039001 -0.008180 0
-0.035757 -0.009297 0
-0.032031 -0.010112 0
-0.027937 -0.010630 0
-0.023592 -0.010860 0
-0.019110 -0.010821 0
-0.014599 -0.010538 0
-0.010161 -0.010039 0
-0.005885 -0.009357 0
-0.001849 -0.008522 0
0.001878 -0.007572 0
0.005243 -0.006542 0
0.008205 -0.005462 0
0.010736 -0.004361 0
0.012824 -0.003262 0
0.014463 -0.002186 0
0.015659 -0.001149 0
0.016422 -0.000163 0
0.016772 0.000761 0
0.016731 0.001616 0
0.016328 0.002399 0
0.015593 0.003104 0
0.014561 0.003726 0
0.013267 0.004253 0
0.011752 0.004672 0
0.010065 0.004957 0
0.008261 0.005075 0
0.006409 0.004985 0
0.004590 0.004634 0
0.002904 0.003972 0
0.001470 0.002964 0
0.000438 0.001614 0
0.000000 0.000000 0
0.000000 0.000000 0
-0.000859 0.003679 0
-0.003161 0.007486 0
-0.006687 0.010982 0
-0.011211 0.013838 0
-0.016482 0.015833 0
-0.022221 0.016849 0
-0.028135 0.016862 0
-0.033938 0.015932 0
-0.039366 0.014183 0
-0.044195 0.011783 0
-0.048247 0.008918 0
-0.051396 0.005775 0
-0.053567 0.002525 0
-0.054728 -0.000687 0
-0.054889 -0.003742 0
-0.054090 -0.006548 0
-0.052395 -0.009034 0
-0.049889 -0.011151 0
-0.046673 -0.012865 0
-0.042858 -0.014163 0
-0.038563 -0.015042 0
-0.033911 -0.015513 0
-0.029025 -0.015598 0
-0.024024 -0.015327 0
-0.019021 -0.014736 0
-0.014122 -0.013869 0
-0.009420 -0.012771 0
-0.004996 -0.011489 0
-0.000919 -0.010069 0
0.002755 -0.008560 0
0.005986 -0.007003 0
0.008745 -0.005435 0
0.011019 -0.003886 0
0.012805 -0.002381 0
0.014111 -0.000942 0
0.014949 0.000415 0
0.015341 0.001678 0
0.015314 0.002838 0
0.014901 0.003887 0
0.014138 0.004814 0
0.013063 0.005608 0
0.011721 0.006245 0
0.010161 0.006696 0
0.008440 0.006917 0
0.006628 0.006852 0
0.004807 0.006434 0
0.003082 0.005591 0
0.001582 0.004258 0
0.000478 0.002393 0
0.000000 0.000000 0
0.000000 -0.000000 0
-0.000992 0.005391 0
-0.003637 0.010630 0
-0.007659 0.015305 0
-0.012791 0.019081 0
-0.018749 0.021717 0
-0.025232 0.023077 0
-0.031933 0.023135 0
-0.038549 0.021967 0
-0.044806 0.019729 0
-0.050466 0.016632 0
-0.055339 0.012912 0
-0.059287 0.008805 0
-0.062219 0.004530 0
-0.064092 0.000277 0
-0.064901 -0.003800 0
-0.064674 -0.007581 0
-0.063466 -0.010971 0
-0.061351 -0.013902 0
-0.058420 -0.016328 0
-0.054780 -0.018222 0
-0.050544 -0.019576 0
-0.045835 -0.020398 0
-0.040777 -0.020709 0
-0.035496 -0.020542 0
-0.030113 -0.019941 0
-0.024744 -0.018958 0
-0.019495 -0.017649 0
-0.014462 -0.016074 0
-0.009727 -0.014293 0
-0.005358 -0.012367 0
-0.001413 -0.010351 0
0.002068 -0.008295 0
0.005056 -0.006246 0
0.007539 -0.004240 0
0.009511 -0.002306 0
0.010982 -0.000469 0
0.011968 0.001251 0
0.012489 0.002838 0
0.012578 0.004280 0
0.012269 0.005563 0
0.011602 0.006670 0
0.010619 0.007574 0
0.009370 0.008238 0
0.007911 0.008609 0
0.006308 0.008618 0
0.004642 0.008180 0
0.003017 0.007198 0
0.001569 0.005568 0
0.000480 0.003196 0
0.000000 0.000000 0
0.000000 -0.000000 0
-0.001094 0.007315 0
-0.004015 0.014154 0
-0.008451 0.020136 0
-0.014103 0.024928 0
-0.020663 0.028275 0
-0.027815 0.030033 0
-0.035236 0.030179 0
-0.042619 0.028805 0
-0.049678 0.026100 0
-0.056170 0.022316 0
-0.061894 0.017740 0
-0.066701 0.012656 0
-0.070489 0.007331 0
-0.073199 0.001995 0
-0.074810 -0.003160 0
-0.075337 -0.007983 0
-0.074818 -0.012358 0
-0.073314 -0.016196 0
-0.070902 -0.019437 0
-0.067675 -0.022039 0
-0.063737 -0.023987 0
-0.059203 -0.025280 0
-0.054194 -0.025937 0
-0.048836 -0.025991 0
-0.043252 -0.025488 0
-0.037565 -0.024487 0
-0.031891 -0.023053 0
-0.026339 -0.021258 0
-0.021003 -0.019173 0
-0.015969 -0.016874 0
-0.011307 -0.014429 0
-0.007071 -0.011904 0
-0.003305 -0.009357 0
-0.000037 -0.006836 0
0.002718 -0.004386 0
0.004958 -0.002041 0
0.006688 0.000171 0
0.007923 0.002228 0
0.008685 0.004107 0
0.009008 0.005790 0
0.008928 0.007257 0
0.008485 0.008477 0
0.007725 0.009404 0
0.006699 0.009980 0
0.005468 0.010121 0
0.004110 0.009725 0
0.002724 0.008664 0
0.001441 0.006795 0
0.000448 0.003962 0
0.000000 0.000000 0
0.000000 -0.000000 0
-0.001170 0.009406 0
-0.004308 0.017987 0
-0.009081 0.025393 0
-0.015169 0.031293 0
-0.022249 0.035428 0
-0.029992 0.037649 0
-0.038071 0.037939 0
-0.046170 0.036409 0
-0.054003 0.033281 0
-0.061319 0.028848 0
-0.067915 0.023444 0
-0.073630 0.017400 0
-0.078350 0.011027 0
-0.082002 0.004597 0
-0.084549 -0.001663 0
-0.085987 -0.007573 0
-0.086338 -0.012994 0
-0.085641 -0.017818 0
-0.083958 -0.021967 0
-0.081362 -0.025387 0
-0.077944 -0.028048 0
-0.073805 -0.029940 0
-0.069056 -0.031076 0
-0.063816 -0.031485 0
-0.058210 -0.031212 0
-0.052361 -0.030318 0
-0.046393 -0.028875 0
-0.040422 -0.026962 0
-0.034557 -0.024663 0
-0.028897 -0.022064 0
-0.023528 -0.019249 0
-0.018519 -0.016297 0
-0.013931 -0.013281 0
-0.009806 -0.010263 0
-0.006172 -0.007301 0
-0.003047 -0.004439 0
-0.000436 -0.001714 0
0.001666 0.000841 0
0.003269 0.003195 0
0.004395 0.005320 0
0.005076 0.007193 0
0.005347 0.008777 0
0.005248 0.010024 0
0.004824 0.010865 0
0.004127 0.011206 0
0.003227 0.010925 0
0.002212 0.009866 0
0.001207 0.007843 0
0.000387 0.004637 0
0.000000 0.000000 0
0.000000 -0.000000 0
-0.001226 0.011624 0
-0.004529 0.022065 0
-0.009568 0.030997 0
-0.016013 0.038095 0
-0.023530 0.043097 0
-0.031787 0.045854 0
-0.040453 0.046356 0
-0.049213 0.044737 0
-0.057780 0.041250 0
-0.065903 0.036229 0
-0.073374 0.030050 0
-0.080025 0.023091 0
-0.085734 0.015702 0
-0.090411 0.008194 0
-0.094003 0.000825 0
-0.096484 -0.006194 0
-0.097856 -0.012704 0
-0.098139 -0.018576 0
-0.097372 -0.023715 0
-0.095606 -0.028053 0
-0.092913 -0.031545 0
-0.089375 -0.034169 0
-0.085089 -0.035926 0
-0.080164 -0.036837 0
-0.074716 -0.036943 0
-0.068868 -0.036304 0
-0.062746 -0.034992 0
-0.056472 -0.033093 0
-0.050166 -0.030698 0
-0.043938 -0.027904 0
-0.037890 -0.024807 0
-0.032110 -0.021500 0
-0.026672 -0.018070 0
-0.021636 -0.014596 0
-0.017048 -0.011145 0
-0.012940 -0.007777 0
-0.009331 -0.004541 0
-0.006228 -0.001476 0
-0.003633 0.001377 0
-0.001539 0.003983 0
0.000072 0.006305 0
0.001228 0.008305 0
0.001959 0.009928 0
0.002301 0.011100 0
0.002298 0.011718 0
0.002003 0.011640 0
0.001491 0.010684 0
0.000870 0.008620 0
0.000297 0.005169 0
0.000000 0.000000 0
0.000000 0.000000 0
-0.001264 0.013936 0
-0.004687 0.026330 0
-0.009928 0.036876 0
-0.016652 0.045255 0
-0.024526 0.051202 0
-0.033217 0.054572 0
-0.042396 0.055365 0
-0.051753 0.053737 0
-0.061003 0.049971 0
-0.069897 0.044442 0
-0.078226 0.037565 0
-0.085820 0.029760 0
-0.092546 0.021413 0
-0.098304 0.012867 0
-0.103020 0.004411 0
-0.106648 -0.003720 0
-0.109167 -0.011339 0
-0.110575 -0.018303 0
-0.110885 -0.024500 0
-0.110127 -0.029846 0
-0.108347 -0.034280 0
-0.105604 -0.037765 0
-0.101978 -0.040288 0
-0.097559 -0.041858 0
-0.092454 -0.042507 0
-0.086778 -0.042288 0
-0.080654 -0.041271 0
-0.074208 -0.039541 0
-0.067567 -0.037196 0
-0.060852 -0.034339 0
-0.054177 -0.031077 0
-0.047648 -0.027516 0
-0.041355 -0.023755 0
-0.035377 -0.019888 0
-0.029779 -0.015997 0
-0.024609 -0.012156 0
-0.019904 -0.008425 0
-0.015686 -0.004856 0
-0.011969 -0.001495 0
-0.008760 0.001615 0
-0.006058 0.004426 0
-0.003854 0.006891 0
-0.002128 0.008951 0
-0.000857 0.010526 0
-0.000012 0.011505 0
0.000443 0.011732 0
0.000564 0.010999 0
0.000434 0.009037 0
0.000180 0.005508 0
0.000000 0.000000 0
0.000000 0.000000 0
-0.001287 0.016311 0
-0.004790 0.030729 0
-0.010173 0.042962 0
-0.017105 0.052694 0
-0.025257 0.059662 0
-0.034299 0.063724 0
-0.043912 0.064893 0
-0.053791 0.063344 0
-0.063659 0.059394 0
-0.073271 0.053452 0
-0.082422 0.045973 0
-0.090939 0.037411 0
-0.098684 0.028186 0
-0.105544 0.018668 0
-0.111433 0.009170 0
-0.116281 -0.000047 0
-0.120043 -0.008776 0
-0.122690 -0.016858 0
-0.124213 -0.024163 0
-0.124616 -0.030592 0
-0.123915 -0.036068 0
-0.122148 -0.040538 0
-0.119368 -0.043970 0
-0.115645 -0.046360 0
-0.111069 -0.047724 0
-0.105742 -0.048104 0
-0.099781 -0.047562 0
-0.093310 -0.046180 0
-0.086459 -0.044055 0
-0.079357 -0.041294 0
-0.072131 -0.038011 0
-0.064900 -0.034322 0
-0.057774 -0.030340 0
-0.050849 -0.026172 0
-0.044208 -0.021913 0
-0.037920 -0.017652 0
-0.032041 -0.013463 0
-0.026612 -0.009411 0
-0.021664 -0.005549 0
-0.017215 -0.001929 0
-0.013281 0.001399 0
-0.009873 0.004375 0
-0.006995 0.006931 0
-0.004639 0.008985 0
-0.002795 0.010418 0
-0.001446 0.011063 0
-0.000566 0.010694 0
-0.000103 0.009005 0
0.000035 0.005603 0
0.000000 -0.000000 0
0.000000 0.000000 0
-0.001297 0.018726 0
-0.004845 0.035215 0
-0.010316 0.049190 0
-0.017387 0.060338 0
-0.025739 0.068397 0
-0.035052 0.073228 0
-0.045014 0.074857 0
-0.055333 0.073484 0
-0.065741 0.069451 0
-0.076003 0.063205 0
-0.085916 0.055233 0
-0.095310 0.046021 0
-0.104044 0.036018 0
-0.111998 0.025616 0
-0.119072 0.015148 0
-0.125178 0.004891 0
-0.130243 -0.004930 0
-0.134215 -0.014132 0
-0.137056 -0.022575 0
-0.138744 -0.030144 0
-0.139269 -0.036747 0
-0.138638 -0.042312 0
-0.136877 -0.046791 0
-0.134032 -0.050157 0
-0.130169 -0.052411 0
-0.125374 -0.053576 0
-0.119750 -0.053703 0
-0.113415 -0.052864 0
-0.106498 -0.051149 0
-0.099133 -0.048667 0
-0.091455 -0.045534 0
-0.083596 -0.041873 0
-0.075683 -0.037807 0
-0.067830 -0.033454 0
-0.060140 -0.028925 0
-0.052705 -0.024322 0
-0.045598 -0.019733 0
-0.038883 -0.015234 0
-0.032610 -0.010893 0
-0.026817 -0.006768 0
-0.021536 -0.002915 0
-0.016793 0.000605 0
-0.012616 0.003717 0
-0.009027 0.006326 0
-0.006038 0.008312 0
-0.003660 0.009503 0
-0.001897 0.009655 0
-0.000738 0.008436 0
-0.000139 0.005405 0
0.000000 -0.000000 0
0.000000 0.000000 0
-0.001297 0.021156 0
-0.004857 0.039746 0
-0.010367 0.055504 0
-0.017516 0.068118 0
-0.025994 0.077327 0
-0.035494 0.082999 0
-0.045719 0.085174 0
-0.056389 0.084071 0
-0.067249 0.080063 0
-0.078075 0.073626 0
-0.088671 0.065280 0
-0.098873 0.055539 0
-0.108538 0.044874 0
-0.117544 0.033696 0
-0.125779 0.022350 0
-0.133141 0.011124 0
-0.139537 0.000260 0
-0.144883 -0.010045 0
-0.149114 -0.019634 0
-0.152182 -0.028379 0
-0.154049 -0.036174 0
-0.154693 -0.042929 0
-0.154107 -0.048576 0
-0.152309 -0.053068 0
-0.149338 -0.056383 0
-0.145258 -0.058523 0
-0.140152 -0.059521 0
-0.134127 -0.059432 0
-0.127305 -0.058337 0
-0.119819 -0.056337 0
-0.111811 -0.053548 0
-0.103422 -0.050094 0
-0.094795 -0.046107 0
-0.086061 -0.041714 0
-0.077344 -0.037039 0
-0.068755 -0.032195 0
-0.060393 -0.027285 0
-0.052342 -0.022399 0
-0.044674 -0.017615 0
-0.037451 -0.013003 0
-0.030725 -0.008625 0
-0.024542 -0.004545 0
-0.018948 -0.000836 0
-0.013992 0.002407 0
-0.009723 0.005051 0
-0.006187 0.006923 0
-0.003424 0.007772 0
-0.001472 0.007246 0
-0.000341 0.004865 0
0.000000 -0.000000 0
0.000000 -0.000000 0
-0.001286 0.023582 0
-0.004832 0.044285 0
-0.010338 0.061849 0
-0.017505 0.075965 0
-0.026040 0.086375 0
-0.035648 0.092953 0
-0.046048 0.095753 0
-0.056976 0.095014 0
-0.068192 0.091137 0
-0.079484 0.084626 0
-0.090667 0.076031 0
-0.101584 0.065889 0
-0.112097 0.054689 0
-0.122080 0.042857 0
-0.131417 0.030745 0
-0.139996 0.018648 0
-0.147707 0.006812 0
-0.154440 -0.004555 0
-0.160099 -0.015275 0
-0.164610 -0.025208 0
-0.167905 -0.034236 0
-0.169932 -0.042254 0
-0.170655 -0.049174 0
-0.170057 -0.054926 0
-0.168147 -0.059462 0
-0.164959 -0.062763 0
-0.160555 -0.064834 0
-0.155020 -0.065711 0
-0.148466 -0.065457 0
-0.141020 -0.064161 0
-0.132824 -0.061930 0
-0.124029 -0.058889 0
-0.114785 -0.055168 0
-0.105243 -0.050905 0
-0.095546 -0.046231 0
-0.085827 -0.041273 0
-0.076208 -0.036146 0
-0.066796 -0.030953 0
-0.057689 -0.025784 0
-0.048971 -0.020717 0
-0.040721 -0.015824 0
-0.033009 -0.011172 0
-0.025905 -0.006833 0
-0.019482 -0.002899 0
-0.013820 0.000507 0
-0.009007 0.003205 0
-0.005137 0.004940 0
-0.002298 0.005353 0
-0.000570 0.003933 0
0.000000 -0.000000 0
0.000000 -0.000000 0
-0.001268 0.025988 0
-0.004776 0.048798 0
-0.010239 0.068178 0
-0.017373 0.083820 0
-0.025899 0.095469 0
-0.035538 0.103008 0
-0.046027 0.106502 0
-0.057119 0.106215 0
-0.068589 0.102571 0
-0.080239 0.096101 0
-0.091900 0.087381 0
-0.103422 0.076969 0
-0.114672 0.065370 0
-0.125531 0.053016 0
-0.135879 0.040266 0
-0.145598 0.027413 0
-0.154565 0.014704 0
-0.162657 0.002348 0
-0.169747 -0.009464 0
-0.175725 -0.020574 0
-0.180499 -0.030852 0
-0.183988 -0.040179 0
-0.186123 -0.048452 0
-0.186856 -0.055576 0
-0.186158 -0.061481 0
-0.184032 -0.066115 0
-0.180508 -0.069459 0
-0.175650 -0.071520 0
-0.169546 -0.072337 0
-0.162315 -0.071979 0
-0.154093 -0.070539 0
-0.145032 -0.068134 0
-0.135294 -0.064893 0
-0.125042 -0.060953 0
-0.114439 -0.056454 0
-0.103639 -0.051533 0
-0.092788 -0.046316 0
-0.082019 -0.040918 0
-0.071454 -0.035440 0
-0.061205 -0.029971 0
-0.051377 -0.024587 0
-0.042068 -0.019361 0
-0.033376 -0.014363 0
-0.025404 -0.009679 0
-0.018266 -0.005423 0
-0.012089 -0.001760 0
-0.007018 0.001063 0
-0.003211 0.002680 0
-0.000825 0.002566 0
0.000000 -0.000000 0
0.000000 -0.000000 0
-0.001243 0.028358 0
-0.004693 0.053256 0
-0.010080 0.074447 0
-0.017136 0.091626 0
-0.025593 0.104540 0
-0.035193 0.113082 0
-0.045687 0.117333 0
-0.056847 0.117575 0
-0.068467 0.114257 0
-0.080364 0.107938 0
-0.092382 0.099213 0
-0.104383 0.088661 0
-0.116245 0.076799 0
-0.127853 0.064063 0
-0.139090 0.050812 0
-0.149838 0.037335 0
-0.159968 0.023871 0
-0.169344 0.010627 0
-0.177822 -0.002207 0
-0.185256 -0.014457 0
-0.191522 -0.025973 0
-0.196515 -0.036630 0
-0.200135 -0.046306 0
-0.202298 -0.054891 0
-0.202941 -0.062286 0
-0.202029 -0.068412 0
-0.199558 -0.073216 0
-0.195557 -0.076673 0
-0.190092 -0.078792 0
-0.183261 -0.079615 0
-0.175189 -0.079213 0
-0.166026 -0.077687 0
-0.155937 -0.075158 0
-0.145099 -0.071759 0
-0.133689 -0.067634 0
-0.121883 -0.062924 0
-0.109852 -0.057767 0
-0.097754 -0.052287 0
-0.085741 -0.046597 0
-0.073952 -0.040794 0
-0.062519 -0.034962 0
-0.051572 -0.029173 0
-0.041240 -0.023496 0
-0.031658 -0.018009 0
-0.022979 -0.012809 0
-0.015372 -0.008043 0
-0.009036 -0.003937 0
-0.004198 -0.000840 0
-0.001103 0.000722 0
0.000000 -0.000000 0
0.000000 -0.000000 0
-0.001213 0.030681 0
-0.004589 0.057636 0
-0.009873 0.080621 0
-0.016809 0.099333 0
-0.025146 0.113526 0
-0.034640 0.123101 0
-0.045061 0.128156 0
-0.056198 0.128994 0
-0.067863 0.126087 0
-0.079892 0.120017 0
-0.092141 0.111401 0
-0.104488 0.100832 0
-0.116820 0.088839 0
-0.129030 0.075861 0
-0.141012 0.062251 0
-0.152647 0.048291 0
-0.163808 0.034210 0
-0.174353 0.020202 0
-0.184127 0.006448 0
-0.192963 -0.006874 0
-0.200698 -0.019593 0
-0.207198 -0.031567 0
-0.212336 -0.042669 0
-0.215997 -0.052770 0
-0.218081 -0.061749 0
-0.218512 -0.069499 0
-0.217248 -0.075931 0
-0.214281 -0.080985 0
-0.209643 -0.084633 0
-0.203404 -0.086882 0
-0.195672 -0.087774 0
-0.186587 -0.087386 0
-0.176313 -0.085820 0
-0.165033 -0.083201 0
-0.152940 -0.079670 0
-0.140230 -0.075370 0
-0.127097 -0.070445 0
-0.113728 -0.065028 0
-0.100303 -0.059242 0
-0.086991 -0.053192 0
-0.073956 -0.046967 0
-0.061359 -0.040640 0
-0.049362 -0.034277 0
-0.038137 -0.027940 0
-0.027875 -0.021709 0
-0.018794 -0.015702 0
-0.011148 -0.010111 0
-0.005237 -0.005253 0
-0.001399 -0.001632 0
0.000000 -0.000000 0
0.000000 0.000000 0
-0.001179 0.032948 0
-0.004470 0.061917 0
-0.009628 0.086667 0
-0.016411 0.106898 0
-0.024582 0.122371 0
-0.033911 0.132997 0
-0.044186 0.138891 0
-0.055213 0.140377 0
-0.066822 0.137951 0
-0.078866 0.132216 0
-0.091219 0.123809 0
-0.103771 0.113340 0
-0.116421 0.101341 0
-0.129076 0.088255 0
-0.141637 0.074429 0
-0.153994 0.060131 0
-0.166024 0.045577 0
-0.177586 0.030946 0
-0.188520 0.016403 0
-0.198653 0.002115 0
-0.207795 -0.011739 0
-0.215763 -0.024992 0