# vtk DataFile Version 2.0
generated by CFD-lab course output (written by Tobias Neckel) 
ASCII

DATASET STRUCTURED_GRID
DIMENSIONS  51 51 1 
POINTS 2601 float

0.000000 0.000000 0
0.020000 0.000000 0
0.040000 0.000000 0
0.060000 0.000000 0
0.080000 0.000000 0
0.100000 0.000000 0
0.120000 0.000000 0
0.140000 0.000000 0
0.160000 0.000000 0
0.180000 0.000000 0
0.200000 0.000000 0
0.220000 0.000000 0
0.240000 0.000000 0
0.260000 0.000000 0
0.280000 0.000000 0
0.300000 0.000000 0
0.320000 0.000000 0
0.340000 0.000000 0
0.360000 0.000000 0
0.380000 0.000000 0
0.400000 0.000000 0
0.420000 0.000000 0
0.440000 0.000000 0
0.460000 0.000000 0
0.480000 0.000000 0
0.500000 0.000000 0
0.520000 0.000000 0
0.540000 0.000000 0
0.560000 0.000000 0
0.580000 0.000000 0
0.600000 0.000000 0
0.620000 0.000000 0
0.640000 0.000000 0
0.660000 0.000000 0
0.680000 0.000000 0
0.700000 0.000000 0
0.720000 0.000000 0
0.740000 0.000000 0
0.760000 0.000000 0
0.780000 0.000000 0
0.800000 0.000000 0
0.820000 0.000000 0
0.840000 0.000000 0
0.860000 0.000000 0
0.880000 0.000000 0
0.900000 0.000000 0
0.920000 0.000000 0
0.940000 0.000000 0
0.960000 0.000000 0
0.980000 0.000000 0
1.000000 0.000000 0
0.000000 0.020000 0
0.020000 0.020000 0
0.040000 0.020000 0
0.060000 0.020000 0
0.080000 0.020000 0
0.100000 0.020000 0
0.120000 0.020000 0
0.140000 0.020000 0
0.160000 0.020000 0
0.180000 0.020000 0
0.200000 0.020000 0
0.220000 0.020000 0
0.240000 0.020000 0
0.260000 0.020000 0
0.280000 0.020000 0
0.300000 0.020000 0
0.320000 0.020000 0
0.340000 0.020000 0
0.360000 0.020000 0
0.380000 0.020000 0
0.400000 0.020000 0
0.420000 0.020000 0
0.440000 0.020000 0
0.460000 0.020000 0
0.480000 0.020000 0
0.500000 0.020000 0
0.520000 0.020000 0
0.540000 0.020000 0
0.560000 0.020000 0
0.580000 0.020000 0
0.600000 0.020000 0
0.620000 0.020000 0
0.640000 0.020000 0
0.660000 0.020000 0
0.680000 0.020000 0
0.700000 0.020000 0
0.720000 0.020000 0
0.740000 0.020000 0
0.760000 0.020000 0
0.780000 0.020000 0
0.800000 0.020000 0
0.820000 0.020000 0
0.840000 0.020000 0
0.860000 0.020000 0
0.880000 0.020000 0
0.900000 0.020000 0
0.920000 0.020000 0
0.940000 0.020000 0
0.960000 0.020000 0
0.980000 0.020000 0
1.000000 0.020000 0
0.000000 0.040000 0
0.020000 0.040000 0
0.040000 0.040000 0
0.060000 0.040000 0
0.080000 0.040000 0
0.100000 0.040000 0
0.120000 0.040000 0
0.140000 0.040000 0
0.160000 0.040000 0
0.180000 0.040000 0
0.200000 0.040000 0
0.220000 0.040000 0
0.240000 0.040000 0
0.260000 0.040000 0
0.280000 0.040000 0
0.300000 0.040000 0
0.320000 0.040000 0
0.340000 0.040000 0
0.360000 0.040000 0
0.380000 0.040000 0
0.400000 0.040000 0
0.420000 0.040000 0
0.440000 0.040000 0
0.460000 0.040000 0
0.480000 0.040000 0
0.500000 0.040000 0
0.520000 0.040000 0
0.540000 0.040000 0
0.560000 0.040000 0
0.580000 0.040000 0
0.600000 0.040000 0
0.620000 0.040000 0
0.640000 0.040000 0
0.660000 0.040000 0
0.680000 0.040000 0
0.700000 0.040000 0
0.720000 0.040000 0
0.740000 0.040000 0
0.760000 0.040000 0
0.780000 0.040000 0
0.800000 0.040000 0
0.820000 0.040000 0
0.840000 0.040000 0
0.860000 0.040000 0
0.880000 0.040000 0
0.900000 0.040000 0
0.920000 0.040000 0
0.940000 0.040000 0
0.960000 0.040000 0
0.980000 0.040000 0
1.000000 0.040000 0
0.000000 0.060000 0
0.020000 0.060000 0
0.040000 0.060000 0
0.060000 0.060000 0
0.080000 0.060000 0
0.100000 0.060000 0
0.120000 0.060000 0
0.140000 0.060000 0
0.160000 0.060000 0
0.180000 0.060000 0
0.200000 0.060000 0
0.220000 0.060000 0
0.240000 0.060000 0
0.260000 0.060000 0
0.280000 0.060000 0
0.300000 0.060000 0
0.320000 0.060000 0
0.340000 0.060000 0
0.360000 0.060000 0
0.380000 0.060000 0
0.400000 0.060000 0
0.420000 0.060000 0
0.440000 0.060000 0
0.460000 0.060000 0
0.480000 0.060000 0
0.500000 0.060000 0
0.520000 0.060000 0
0.540000 0.060000 0
0.560000 0.060000 0
0.580000 0.060000 0
0.600000 0.060000 0
0.620000 0.060000 0
0.640000 0.060000 0
0.660000 0.060000 0
0.680000 0.060000 0
0.700000 0.060000 0
0.720000 0.060000 0
0.740000 0.060000 0
0.760000 0.060000 0
0.780000 0.060000 0
0.800000 0.060000 0
0.820000 0.060000 0
0.840000 0.060000 0
0.860000 0.060000 0
0.880000 0.060000 0
0.900000 0.060000 0
0.920000 0.060000 0
0.940000 0.060000 0
0.960000 0.060000 0
0.980000 0.060000 0
1.000000 0.060000 0
0.000000 0.080000 0
0.020000 0.080000 0
0.040000 0.080000 0
0.060000 0.080000 0
0.080000 0.080000 0
0.100000 0.080000 0
0.120000 0.080000 0
0.140000 0.080000 0
0.160000 0.080000 0
0.180000 0.080000 0
0.200000 0.080000 0
0.220000 0.080000 0
0.240000 0.080000 0
0.260000 0.080000 0
0.280000 0.080000 0
0.300000 0.080000 0
0.320000 0.080000 0
0.340000 0.080000 0
0.360000 0.080000 0
0.380000 0.080000 0
0.400000 0.080000 0
0.420000 0.080000 0
0.440000 0.080000 0
0.460000 0.080000 0
0.480000 0.080000 0
0.500000 0.080000 0
0.520000 0.080000 0
0.540000 0.080000 0
0.560000 0.080000 0
0.580000 0.080000 0
0.600000 0.080000 0
0.620000 0.080000 0
0.640000 0.080000 0
0.660000 0.080000 0
0.680000 0.080000 0
0.700000 0.080000 0
0.720000 0.080000 0
0.740000 0.080000 0
0.760000 0.080000 0
0.780000 0.080000 0
0.800000 0.080000 0
0.820000 0.080000 0
0.840000 0.080000 0
0.860000 0.080000 0
0.880000 0.080000 0
0.900000 0.080000 0
0.920000 0.080000 0
0.940000 0.080000 0
0.960000 0.080000 0
0.980000 0.080000 0
1.000000 0.080000 0
0.000000 0.100000 0
0.020000 0.100000 0
0.040000 0.100000 0
0.060000 0.100000 0
0.080000 0.100000 0
0.100000 0.100000 0
0.120000 0.100000 0
0.140000 0.100000 0
0.160000 0.100000 0
0.180000 0.100000 0
0.200000 0.100000 0
0.220000 0.100000 0
0.240000 0.100000 0
0.260000 0.100000 0
0.280000 0.100000 0
0.300000 0.100000 0
0.320000 0.100000 0
0.340000 0.100000 0
0.360000 0.100000 0
0.380000 0.100000 0
0.400000 0.100000 0
0.420000 0.100000 0
0.440000 0.100000 0
0.460000 0.100000 0
0.480000 0.100000 0
0.500000 0.100000 0
0.520000 0.100000 0
0.540000 0.100000 0
0.560000 0.100000 0
0.580000 0.100000 0
0.600000 0.100000 0
0.620000 0.100000 0
0.640000 0.100000 0
0.660000 0.100000 0
0.680000 0.100000 0
0.700000 0.100000 0
0.720000 0.100000 0
0.740000 0.100000 0
0.760000 0.100000 0
0.780000 0.100000 0
0.800000 0.100000 0
0.820000 0.100000 0
0.840000 0.100000 0
0.860000 0.100000 0
0.880000 0.100000 0
0.900000 0.100000 0
0.920000 0.100000 0
0.940000 0.100000 0
0.960000 0.100000 0
0.980000 0.100000 0
1.000000 0.100000 0
0.000000 0.120000 0
0.020000 0.120000 0
0.040000 0.120000 0
0.060000 0.120000 0
0.080000 0.120000 0
0.100000 0.120000 0
0.120000 0.120000 0
0.140000 0.120000 0
0.160000 0.120000 0
0.180000 0.120000 0
0.200000 0.120000 0
0.220000 0.120000 0
0.240000 0.120000 0
0.260000 0.120000 0
0.280000 0.120000 0
0.300000 0.120000 0
0.320000 0.120000 0
0.340000 0.120000 0
0.360000 0.120000 0
0.380000 0.120000 0
0.400000 0.120000 0
0.420000 0.120000 0
0.440000 0.120000 0
0.460000 0.120000 0
0.480000 0.120000 0
0.500000 0.120000 0
0.520000 0.120000 0
0.540000 0.120000 0
0.560000 0.120000 0
0.580000 0.120000 0
0.600000 0.120000 0
0.620000 0.120000 0
0.640000 0.120000 0
0.660000 0.120000 0
0.680000 0.120000 0
0.700000 0.120000 0
0.720000 0.120000 0
0.740000 0.120000 0
0.760000 0.120000 0
0.780000 0.120000 0
0.800000 0.120000 0
0.820000 0.120000 0
0.840000 0.120000 0
0.860000 0.120000 0
0.880000 0.120000 0
0.900000 0.120000 0
0.920000 0.120000 0
0.940000 0.120000 0
0.960000 0.120000 0
0.980000 0.120000 0
1.000000 0.120000 0
0.000000 0.140000 0
0.020000 0.140000 0
0.040000 0.140000 0
0.060000 0.140000 0
0.080000 0.140000 0
0.100000 0.140000 0
0.120000 0.140000 0
0.140000 0.140000 0
0.160000 0.140000 0
0.180000 0.140000 0
0.200000 0.140000 0
0.220000 0.140000 0
0.240000 0.140000 0
0.260000 0.140000 0
0.280000 0.140000 0
0.300000 0.140000 0
0.320000 0.140000 0
0.340000 0.140000 0
0.360000 0.140000 0
0.380000 0.140000 0
0.400000 0.140000 0
0.420000 0.140000 0
0.440000 0.140000 0
0.460000 0.140000 0
0.480000 0.140000 0
0.500000 0.140000 0
0.520000 0.140000 0
0.540000 0.140000 0
0.560000 0.140000 0
0.580000 0.140000 0
0.600000 0.140000 0
0.620000 0.140000 0
0.640000 0.140000 0
0.660000 0.140000 0
0.680000 0.140000 0
0.700000 0.140000 0
0.720000 0.140000 0
0.740000 0.140000 0
0.760000 0.140000 0
0.780000 0.140000 0
0.800000 0.140000 0
0.820000 0.140000 0
0.840000 0.140000 0
0.860000 0.140000 0
0.880000 0.140000 0
0.900000 0.140000 0
0.920000 0.140000 0
0.940000 0.140000 0
0.960000 0.140000 0
0.980000 0.140000 0
1.000000 0.140000 0
0.000000 0.160000 0
0.020000 0.160000 0
0.040000 0.160000 0
0.060000 0.160000 0
0.080000 0.160000 0
0.100000 0.160000 0
0.120000 0.160000 0
0.140000 0.160000 0
0.160000 0.160000 0
0.180000 0.160000 0
0.200000 0.160000 0
0.220000 0.160000 0
0.240000 0.160000 0
0.260000 0.160000 0
0.280000 0.160000 0
0.300000 0.160000 0
0.320000 0.160000 0
0.340000 0.160000 0
0.360000 0.160000 0
0.380000 0.160000 0
0.400000 0.160000 0
0.420000 0.160000 0
0.440000 0.160000 0
0.460000 0.160000 0
0.480000 0.160000 0
0.500000 0.160000 0
0.520000 0.160000 0
0.540000 0.160000 0
0.560000 0.160000 0
0.580000 0.160000 0
0.600000 0.160000 0
0.620000 0.160000 0
0.640000 0.160000 0
0.660000 0.160000 0
0.680000 0.160000 0
0.700000 0.160000 0
0.720000 0.160000 0
0.740000 0.160000 0
0.760000 0.160000 0
0.780000 0.160000 0
0.800000 0.160000 0
0.820000 0.160000 0
0.840000 0.160000 0
0.860000 0.160000 0
0.880000 0.160000 0
0.900000 0.160000 0
0.920000 0.160000 0
0.940000 0.160000 0
0.960000 0.160000 0
0.980000 0.160000 0
1.000000 0.160000 0
0.000000 0.180000 0
0.020000 0.180000 0
0.040000 0.180000 0
0.060000 0.180000 0
0.080000 0.180000 0
0.100000 0.180000 0
0.120000 0.180000 0
0.140000 0.180000 0
0.160000 0.180000 0
0.180000 0.180000 0
0.200000 0.180000 0
0.220000 0.180000 0
0.240000 0.180000 0
0.260000 0.180000 0
0.280000 0.180000 0
0.300000 0.180000 0
0.320000 0.180000 0
0.340000 0.180000 0
0.360000 0.180000 0
0.380000 0.180000 0
0.400000 0.180000 0
0.420000 0.180000 0
0.440000 0.180000 0
0.460000 0.180000 0
0.480000 0.180000 0
0.500000 0.180000 0
0.520000 0.180000 0
0.540000 0.180000 0
0.560000 0.180000 0
0.580000 0.180000 0
0.600000 0.180000 0
0.620000 0.180000 0
[...]
POINT_DATA 2601 

VECTORS velocity float
0.000000 0.000000 0
0.000000 0.000000 0
0.000000 0.000000 0
0.000000 0.000000 0
0.000001 0.000000 0
0.000001 0.000000 0
0.000000 0.000000 0
0.000000 0.000000 0
-0.000000 0.000000 0
-0.000000 0.000000 0
-0.000001 0.000000 0
-0.000001 0.000000 0
-0.000001 0.000000 0
-0.000002 0.000000 0
-0.000002 0.000000 0
-0.000002 0.000000 0
-0.000002 0.000000 0
-0.000002 0.000000 0
-0.000002 0.000000 0
-0.000002 0.000000 0
-0.000002 0.000000 0
-0.000002 0.000000 0
-0.000002 0.000000 0
-0.000002 0.000000 0
-0.000002 0.000000 0
-0.000001 0.000000 0
-0.000001 0.000000 0
-0.000001 0.000000 0
-0.000000 0.000000 0
0.000000 0.000000 0
0.000001 0.000000 0
0.000001 0.000000 0
0.000001 0.000000 0
0.000002 0.000000 0
0.000002 0.000000 0
0.000002 0.000000 0
0.000003 0.000000 0
0.000003 0.000000 0
0.000003 0.000000 0
0.000003 0.000000 0
0.000003 0.000000 0
0.000003 0.000000 0
0.000003 0.000000 0
0.000003 0.000000 0
0.000003 0.000000 0
0.000002 0.000000 0
0.000002 0.000000 0
0.000001 0.000000 0
0.000000 0.000000 0
0.000000 0.000000 0
0.000000 0.000000 0
0.000000 -0.000000 0
-0.000011 0.000010 0
-0.000129 0.000082 0
-0.000368 0.000156 0
-0.000713 0.000214 0
-0.001138 0.000255 0
-0.001617 0.000280 0
-0.002128 0.000292 0
-0.002652 0.000295 0
-0.003174 0.000290 0
-0.003684 0.000280 0
-0.004174 0.000266 0
-0.004639 0.000250 0
-0.005074 0.000232 0
-0.005477 0.000213 0
-0.005845 0.000193 0
-0.006176 0.000172 0
-0.006469 0.000150 0
-0.006724 0.000128 0
-0.006938 0.000105 0
-0.007113 0.000082 0
-0.007246 0.000059 0
-0.007338 0.000036 0
-0.007389 0.000014 0
-0.007399 -0.000009 0
-0.007369 -0.000031 0
-0.007300 -0.000053 0
-0.007191 -0.000074 0
-0.007045 -0.000094 0
-0.006862 -0.000114 0
-0.006644 -0.000133 0
-0.006393 -0.000150 0
-0.006111 -0.000167 0
-0.005798 -0.000182 0
-0.005458 -0.000197 0
-0.005093 -0.000210 0
-0.004704 -0.000222 0
-0.004295 -0.000232 0
-0.003868 -0.000241 0
-0.003426 -0.000247 0
-0.002974 -0.000252 0
-0.002517 -0.000253 0
-0.002061 -0.000249 0
-0.001616 -0.000240 0
-0.001194 -0.000223 0
-0.000809 -0.000196 0
-0.000479 -0.000156 0
-0.000224 -0.000104 0
-0.000060 -0.000044 0
0.000007 0.000007 0
0.000000 0.000000 0
0.000000 -0.000000 0
-0.000081 0.000128 0
-0.000356 0.000357 0
-0.000823 0.000584 0
-0.001455 0.000769 0
-0.002216 0.000904 0
-0.003066 0.000990 0
-0.003970 0.001034 0
-0.004897 0.001046 0
-0.005824 0.001032 0
-0.006732 0.001000 0
-0.007606 0.000955 0
-0.008437 0.000899 0
-0.009218 0.000837 0
-0.009941 0.000770 0
-0.010604 0.000699 0
-0.011203 0.000624 0
-0.011735 0.000548 0
-0.012198 0.000469 0
-0.012590 0.000388 0
-0.012911 0.000307 0
-0.013158 0.000225 0
-0.013333 0.000143 0
-0.013434 0.000061 0
-0.013462 -0.000020 0
-0.013417 -0.000100 0
-0.013302 -0.000178 0
-0.013116 -0.000255 0
-0.012862 -0.000329 0
-0.012542 -0.000401 0
-0.012159 -0.000469 0
-0.011715 -0.000534 0
-0.011213 -0.000595 0
-0.010656 -0.000652 0
-0.010049 -0.000705 0
-0.009394 -0.000754 0
-0.008697 -0.000798 0
-0.007961 -0.000836 0
-0.007193 -0.000869 0
-0.006397 -0.000894 0
-0.005583 -0.000909 0
-0.004759 -0.000913 0
-0.003938 -0.000900 0
-0.003135 -0.000867 0
-0.002372 -0.000807 0
-0.001672 -0.000714 0
-0.001063 -0.000585 0
-0.000574 -0.000419 0
-0.000231 -0.000231 0
-0.000044 -0.000060 0
0.000000 0.000000 0
0.000000 -0.000000 0
-0.000154 0.000366 0
-0.000584 0.000823 0
-0.001257 0.001254 0
-0.002133 0.001607 0
-0.003167 0.001866 0
-0.004311 0.002034 0
-0.005522 0.002124 0
-0.006763 0.002149 0
-0.008004 0.002124 0
-0.009220 0.002062 0
-0.010393 0.001972 0
-0.011510 0.001862 0
-0.012561 0.001736 0
-0.013537 0.001600 0
-0.014433 0.001454 0
-0.015245 0.001302 0
-0.015967 0.001145 0
-0.016597 0.000983 0
-0.017134 0.000818 0
-0.017574 0.000650 0
-0.017917 0.000481 0
-0.018161 0.000312 0
-0.018307 0.000143 0
-0.018355 -0.000025 0
-0.018305 -0.000191 0
-0.018159 -0.000354 0
-0.017918 -0.000513 0
-0.017585 -0.000668 0
-0.017162 -0.000817 0
-0.016653 -0.000961 0
-0.016060 -0.001097 0
-0.015388 -0.001226 0
-0.014642 -0.001346 0
-0.013826 -0.001459 0
-0.012945 -0.001562 0
-0.012006 -0.001654 0
-0.011013 -0.001736 0
-0.009975 -0.001804 0
-0.008900 -0.001857 0
-0.007799 -0.001890 0
-0.006684 -0.001898 0
-0.005572 -0.001873 0
-0.004484 -0.001806 0
-0.003445 -0.001686 0
-0.002484 -0.001505 0
-0.001637 -0.001254 0
-0.000938 -0.000936 0
-0.000420 -0.000574 0
-0.000104 -0.000223 0
0.000000 0.000001 0
0.000000 -0.000001 0
-0.000214 0.000711 0
-0.000777 0.001459 0
-0.001628 0.002133 0
-0.002711 0.002680 0
-0.003969 0.003082 0
-0.005349 0.003345 0
-0.006803 0.003486 0
-0.008289 0.003526 0
-0.009774 0.003488 0
-0.011229 0.003389 0
-0.012635 0.003245 0
-0.013975 0.003067 0
-0.015236 0.002864 0
-0.016409 0.002643 0
-0.017488 0.002406 0
-0.018466 0.002158 0
-0.019338 0.001900 0
-0.020101 0.001635 0
-0.020752 0.001365 0
-0.021288 0.001090 0
-0.021708 0.000812 0
-0.022010 0.000534 0
-0.022195 0.000255 0
-0.022261 -0.000022 0
-0.022210 -0.000296 0
-0.022043 -0.000565 0
-0.021763 -0.000829 0
-0.021370 -0.001085 0
-0.020869 -0.001333 0
-0.020263 -0.001571 0
-0.019557 -0.001798 0
-0.018754 -0.002013 0
-0.017861 -0.002215 0
-0.016883 -0.002402 0
-0.015825 -0.002575 0
-0.014696 -0.002730 0
-0.013503 -0.002867 0
-0.012254 -0.002981 0
-0.010960 -0.003070 0
-0.009633 -0.003125 0
-0.008289 -0.003140 0
-0.006946 -0.003101 0
-0.005630 -0.002995 0
-0.004367 -0.002807 0
-0.003193 -0.002522 0
-0.002145 -0.002131 0
-0.001263 -0.001637 0
-0.000588 -0.001065 0
-0.000156 -0.000479 0
0.000000 0.000002 0
0.000000 -0.000001 0
-0.000260 0.001143 0
-0.000931 0.002237 0
-0.001929 0.003187 0
-0.003182 0.003947 0
-0.004624 0.004504 0
-0.006196 0.004868 0
-0.007845 0.005064 0
-0.009526 0.005120 0
-0.011203 0.005064 0
-0.012846 0.004923 0
-0.014433 0.004717 0
-0.015946 0.004462 0
-0.017372 0.004171 0
-0.018699 0.003852 0
-0.019920 0.003511 0
-0.021028 0.003152 0
-0.022018 0.002780 0
-0.022885 0.002397 0
-0.023626 0.002005 0
-0.024238 0.001606 0
-0.024720 0.001203 0
-0.025069 0.000798 0
-0.025284 0.000393 0
-0.025367 -0.000010 0
-0.025317 -0.000409 0
-0.025135 -0.000802 0
-0.024825 -0.001187 0
-0.024387 -0.001562 0
-0.023826 -0.001924 0
-0.023146 -0.002273 0
-0.022351 -0.002606 0
-0.021447 -0.002921 0
-0.020439 -0.003218 0
-0.019334 -0.003494 0
-0.018138 -0.003748 0
-0.016861 -0.003977 0
-0.015510 -0.004178 0
-0.014095 -0.004347 0
-0.012628 -0.004478 0
-0.011124 -0.004561 0
-0.009598 -0.004584 0
-0.008073 -0.004532 0
-0.006573 -0.004385 0
-0.005130 -0.004123 0
-0.003781 -0.003727 0
-0.002566 -0.003183 0
-0.001531 -0.002493 0
-0.000725 -0.001681 0
-0.000197 -0.000812 0
0.000000 0.000002 0
0.000000 -0.000001 0
-0.000294 0.001642 0
-0.001050 0.003128 0
-0.002167 0.004384 0
-0.003560 0.005375 0
-0.005154 0.006095 0
-0.006883 0.006565 0
-0.008691 0.006816 0
-0.010530 0.006884 0
-0.012362 0.006808 0
-0.014155 0.006619 0
-0.015886 0.006345 0
-0.017536 0.006005 0
-0.019091 0.005617 0
-0.020539 0.005191 0
-0.021873 0.004735 0
-0.023084 0.004256 0
-0.024166 0.003757 0
-0.025116 0.003244 0
-0.025929 0.002718 0
-0.026601 0.002183 0
-0.027132 0.001642 0
-0.027518 0.001098 0
-0.027760 0.000553 0
-0.027856 0.000010 0
-0.027807 -0.000527 0
-0.027615 -0.001058 0
-0.027281 -0.001577 0
-0.026809 -0.002084 0
-0.026201 -0.002574 0
-0.025462 -0.003046 0
-0.024597 -0.003497 0
-0.023612 -0.003925 0
-0.022512 -0.004328 0
-0.021306 -0.004703 0
-0.020001 -0.005047 0
-0.018605 -0.005359 0
-0.017128 -0.005633 0
-0.015581 -0.005863 0
-0.013976 -0.006041 0
-0.012329 -0.006155 0
-0.010659 -0.006190 0
-0.008986 -0.006125 0
-0.007338 -0.005937 0
-0.005748 -0.005599 0
-0.004254 -0.005086 0
-0.002902 -0.004380 0
-0.001742 -0.003477 0
-0.000830 -0.002399 0
-0.000227 -0.001204 0
0.000000 0.000003 0
0.000000 -0.000000 0
-0.000319 0.002192 0
-0.001142 0.004110 0
-0.002355 0.005698 0
-0.003864 0.006934 0
-0.005586 0.007827 0
-0.007447 0.008405 0
-0.009388 0.008710 0
-0.011358 0.008790 0
-0.013318 0.008689 0
-0.015235 0.008447 0
-0.017084 0.008098 0
-0.018846 0.007667 0
-0.020506 0.007174 0
-0.022053 0.006633 0
-0.023477 0.006055 0
-0.024771 0.005446 0
-0.025929 0.004812 0
-0.026946 0.004159 0
-0.027817 0.003490 0
-0.028539 0.002809 0
-0.029110 0.002120 0
-0.029527 0.001426 0
-0.029790 0.000731 0
-0.029898 0.000038 0
-0.029851 -0.000650 0
-0.029651 -0.001328 0
-0.029299 -0.001993 0
-0.028798 -0.002642 0
-0.028152 -0.003271 0
-0.027365 -0.003877 0
-0.026443 -0.004456 0
-0.025391 -0.005006 0
-0.024217 -0.005523 0
-0.022927 -0.006006 0
-0.021531 -0.006449 0
-0.020037 -0.006850 0
-0.018456 -0.007202 0
-0.016800 -0.007499 0
-0.015082 -0.007729 0
-0.013317 -0.007879 0
-0.011526 -0.007928 0
-0.009730 -0.007852 0
-0.007959 -0.007622 0
-0.006247 -0.007206 0
-0.004634 -0.006572 0
-0.003169 -0.005695 0
-0.001907 -0.004565 0
-0.000910 -0.003196 0
-0.000249 -0.001642 0
0.000000 0.000003 0
0.000000 -0.000000 0
-0.000339 0.002783 0
-0.001215 0.005164 0
-0.002510 0.007107 0
-0.004117 0.008605 0
-0.005947 0.009677 0
-0.007923 0.010367 0
-0.009980 0.010727 0
-0.012065 0.010814 0
-0.014136 0.010684 0
-0.016159 0.010385 0
-0.018109 0.009956 0
-0.019967 0.009428 0
-0.021716 0.008824 0
-0.023347 0.008162 0
-0.024848 0.007453 0
-0.026212 0.006707 0
-0.027434 0.005932 0
-0.028507 0.005131 0
-0.029428 0.004311 0
-0.030193 0.003476 0
-0.030799 0.002631 0
-0.031244 0.001778 0
-0.031526 0.000924 0
-0.031645 0.000071 0
-0.031601 -0.000775 0
-0.031394 -0.001610 0
-0.031027 -0.002430 0
-0.030503 -0.003230 0
-0.029825 -0.004007 0
-0.028997 -0.004755 0
-0.028025 -0.005471 0
-0.026916 -0.006151 0
-0.025677 -0.006792 0
-0.024315 -0.007388 0
-0.022840 -0.007937 0
-0.021261 -0.008433 0
-0.019590 -0.008870 0
-0.017838 -0.009237 0
-0.016021 -0.009524 0
-0.014154 -0.009711 0
-0.012257 -0.009777 0
-0.010356 -0.009692 0
-0.008478 -0.009420 0
-0.006660 -0.008924 0
-0.004945 -0.008164 0
-0.003383 -0.007107 0
-0.002036 -0.005736 0
-0.000971 -0.004057 0
-0.000265 -0.002114 0
0.000000 0.000004 0
0.000000 0.000000 0
-0.000355 0.003407 0
-0.001278 0.006280 0
-0.002643 0.008599 0
-0.004337 0.010372 0
-0.006266 0.011633 0
-0.008346 0.012438 0
-0.010508 0.012852 0
-0.012697 0.012945 0
-0.014869 0.012782 0
-0.016989 0.012420 0
-0.019031 0.011906 0
-0.020975 0.011274 0
-0.022805 0.010554 0
-0.024510 0.009765 0
-0.026081 0.008920 0
-0.027509 0.008032 0
-0.028788 0.007107 0
-0.029913 0.006153 0
-0.030879 0.005176 0
-0.031684 0.004180 0
-0.032322 0.003171 0
-0.032793 0.002153 0
-0.033094 0.001132 0
-0.033224 0.000112 0
-0.033184 -0.000901 0
-0.032973 -0.001901 0
-0.032595 -0.002884 0
-0.032050 -0.003845 0
-0.031343 -0.004777 0
-0.030479 -0.005676 0
-0.029463 -0.006537 0
-0.028301 -0.007354 0
-0.027002 -0.008125 0
-0.025574 -0.008843 0
-0.024025 -0.009503 0
-0.022368 -0.010100 0
-0.020612 -0.010625 0
-0.018773 -0.011068 0
-0.016863 -0.011413 0
-0.014901 -0.011642 0
-0.012908 -0.011726 0
-0.010908 -0.011632 0
-0.008932 -0.011318 0
-0.007018 -0.010740 0
-0.005211 -0.009848 0
-0.003565 -0.008603 0
-0.002144 -0.006977 0
-0.001021 -0.004968 0
-0.000277 -0.002613 0
0.000000 0.000004 0
0.000000 0.000001 0
-0.000370 0.004060 0
-0.001336 0.007451 0
-0.002765 0.010166 0
-0.004542 0.012228 0
-0.006564 0.013686 0
-0.008743 0.014609 0
-0.011006 0.015078 0
-0.013295 0.015175 0
-0.015564 0.014976 0
-0.017777 0.014547 0
-0.019906 0.013941 0
-0.021933 0.013202 0
-0.023840 0.012359 0
-0.025617 0.011437 0
-0.027254 0.010451 0
-0.028742 0.009414 0
-0.030077 0.008336 0
-0.031252 0.007223 0
-0.032263 0.006082 0
-0.033106 0.004919 0
-0.033778 0.003740 0
-0.034275 0.002550 0
-0.034596 0.001355 0
-0.034740 0.000161 0
-0.034705 -0.001025 0
-0.034493 -0.002199 0
-0.034105 -0.003353 0
-0.033543 -0.004482 0
-0.032810 -0.005578 0
-0.031911 -0.006636 0
-0.030852 -0.007649 0
-0.029640 -0.008612 0
-0.028283 -0.009519 0
-0.026789 -0.010365 0
-0.025169 -0.011143 0
-0.023434 -0.011846 0
-0.021596 -0.012465 0
-0.019669 -0.012987 0
-0.017668 -0.013395 0
-0.015613 -0.013666 0
-0.013524 -0.013770 0
-0.011428 -0.013667 0
-0.009358 -0.013310 0
-0.007351 -0.012645 0
-0.005456 -0.011617 0
-0.003730 -0.010174 0
-0.002241 -0.008280 0
-0.001065 -0.005923 0
-0.000288 -0.003135 0
0.000000 0.000004 0
0.000000 0.000001 0
-0.000385 0.004742 0
-0.001393 0.008675 0
-0.002887 0.011805 0
-0.004745 0.014170 0
-0.006859 0.015833 0
-0.009137 0.016880 0
-0.011502 0.017404 0
-0.013891 0.017503 0
-0.016257 0.017263 0
-0.018563 0.016762 0
-0.020781 0.016061 0
-0.022890 0.015208 0
-0.024875 0.014238 0
-0.026724 0.013178 0
-0.028427 0.012045 0
-0.029977 0.010855 0
-0.031368 0.009617 0
-0.032594 0.008340 0
-0.033652 0.007030 0
-0.034535 0.005694 0
-0.035242 0.004340 0
-0.035769 0.002972 0
-0.036113 0.001597 0
-0.036273 0.000221 0
-0.036247 -0.001147 0
-0.036036 -0.002502 0
-0.035641 -0.003835 0
-0.035063 -0.005140 0
-0.034305 -0.006408 0
-0.033373 -0.007633 0
-0.032272 -0.008807 0
-0.031010 -0.009924 0
-0.029593 -0.010976 0
-0.028032 -0.011956 0
-0.026338 -0.012858 0
-0.024522 -0.013673 0
-0.022598 -0.014390 0
-0.020579 -0.014995 0
-0.018484 -0.015469 0
-0.016332 -0.015786 0
-0.014144 -0.015910 0
-0.011950 -0.015798 0
-0.009782 -0.015395 0
-0.007681 -0.014641 0
-0.005698 -0.013469 0
-0.003892 -0.011818 0
-0.002336 -0.009642 0
-0.001108 -0.006920 0
-0.000299 -0.003678 0
0.000000 0.000005 0
0.000000 0.000002 0
-0.000401 0.005452 0
-0.001452 0.009952 0
-0.003013 0.013518 0
-0.004955 0.016200 0
-0.007165 0.018078 0
-0.009546 0.019251 0
-0.012016 0.019832 0
-0.014510 0.019931 0
-0.016977 0.019648 0
-0.019380 0.019070 0
-0.021689 0.018268 0
-0.023884 0.017295 0
-0.025949 0.016193 0
-0.027873 0.014989 0
-0.029645 0.013705 0
-0.031260 0.012356 0
-0.032711 0.010953 0
-0.033992 0.009506 0
-0.035099 0.008023 0
-0.036027 0.006510 0
-0.036773 0.004973 0
-0.037333 0.003421 0
-0.037704 0.001859 0
-0.037884 0.000296 0
-0.037871 -0.001262 0
-0.037665 -0.002806 0
-0.037265 -0.004327 0
-0.036673 -0.005817 0
-0.035893 -0.007267 0
-0.034928 -0.008668 0
-0.033784 -0.010013 0
-0.032468 -0.011291 0
-0.030989 -0.012497 0
-0.029357 -0.013620 0
-0.027583 -0.014653 0
-0.025681 -0.015586 0
-0.023664 -0.016407 0
-0.021548 -0.017100 0
-0.019350 -0.017642 0
-0.017093 -0.018006 0
-0.014799 -0.018152 0
-0.012499 -0.018030 0
-0.010227 -0.017579 0
-0.008027 -0.016729 0
-0.005950 -0.015406 0
-0.004062 -0.013536 0
-0.002434 -0.011064 0
-0.001153 -0.007959 0
-0.000310 -0.004243 0
0.000000 0.000005 0
0.000000 0.000002 0
-0.000418 0.006194 0
-0.001516 0.011286 0
-0.003148 0.015308 0
-0.005181 0.018323 0
-0.007493 0.020424 0
-0.009983 0.021730 0
-0.012565 0.022368 0
-0.015170 0.022464 0
-0.017745 0.022134 0
-0.020251 0.021474 0
-0.022657 0.020565 0
-0.024943 0.019468 0
-0.027093 0.018226 0
-0.029096 0.016874 0
-0.030942 0.015433 0
-0.032626 0.013920 0
-0.034141 0.012349 0
-0.035482 0.010728 0
-0.036643 0.009065 0
-0.037621 0.007369 0
-0.038412 0.005646 0
-0.039011 0.003903 0
-0.039414 0.002148 0
-0.039619 0.000388 0
-0.039623 -0.001367 0
-0.039425 -0.003108 0
-0.039025 -0.004826 0
-0.038422 -0.006512 0
-0.037620 -0.008154 0
-0.036622 -0.009742 0
-0.035433 -0.011267 0
-0.034062 -0.012718 0
-0.032516 -0.014086 0
-0.030807 -0.015362 0
-0.028947 -0.016534 0
-0.026950 -0.017593 0
-0.024830 -0.018523 0
-0.022606 -0.019308 0
-0.020296 -0.019924 0
-0.017924 -0.020336 0
-0.015513 -0.020504 0
-0.013097 -0.020370 0
-0.010711 -0.019868 0
-0.008402 -0.018917 0
-0.006224 -0.017434 0
-0.004245 -0.015334 0
-0.002542 -0.012550 0
-0.001203 -0.009044 0
-0.000323 -0.004832 0
0.000000 0.000005 0
0.000000 0.000003 0
-0.000437 0.006968 0
-0.001587 0.012682 0
-0.003297 0.017182 0
-0.005427 0.020545 0
-0.007850 0.022880 0
-0.010459 0.024323 0
-0.013161 0.025019 0
-0.015886 0.025111 0
-0.018576 0.024728 0
-0.021192 0.023982 0
-0.023702 0.022960 0
-0.026085 0.021731 0
-0.028326 0.020345 0
-0.030414 0.018838 0
-0.032340 0.017235 0
-0.034099 0.015554 0
-0.035683 0.013809 0
-0.037089 0.012009 0
-0.038312 0.010163 0
-0.039346 0.008278 0
-0.040187 0.006363 0
-0.040831 0.004423 0
-0.041273 0.002468 0
-0.041510 0.000505 0
-0.041537 -0.001456 0
-0.041353 -0.003404 0
-0.040956 -0.005330 0
-0.040346 -0.007222 0
-0.039523 -0.009067 0
-0.038492 -0.010855 0
-0.037258 -0.012572 0
-0.035828 -0.014208 0
-0.034211 -0.015751 0
-0.032418 -0.017189 0
-0.030463 -0.018510 0
-0.028360 -0.019703 0
-0.026127 -0.020750 0
-0.023783 -0.021633 0
-0.021347 -0.022325 0
-0.018845 -0.022789 0
-0.016305 -0.022978 0
-0.013759 -0.022832 0
-0.011247 -0.022273 0
-0.008817 -0.021215 0
-0.006528 -0.019562 0
-0.004449 -0.017219 0
-0.002662 -0.014106 0
-0.001258 -0.010178 0
-0.000337 -0.005446 0
0.000000 0.000006 0
0.000000 0.000003 0
-0.000458 0.007780 0
-0.001665 0.014146 0
-0.003461 0.019148 0
-0.005698 0.022876 0
-0.008243 0.025456 0
-0.010980 0.027041 0
-0.013814 0.027795 0
-0.016668 0.027879 0
-0.019483 0.027439 0
-0.022216 0.026599 0
-0.024838 0.025458 0
-0.027325 0.024092 0
-0.029664 0.022555 0
-0.031843 0.020888 0
-0.033855 0.019117 0
-0.035694 0.017263 0
-0.037355 0.015339 0
-0.038833 0.013356 0
-0.040122 0.011322 0
-0.041220 0.009244 0
-0.042119 0.007131 0
-0.042816 0.004989 0
-0.043304 0.002826 0
-0.043580 0.000652 0
-0.043638 -0.001523 0
-0.043474 -0.003689 0
-0.043086 -0.005834 0
-0.042472 -0.007944 0
-0.041633 -0.010007 0
-0.040571 -0.012007 0
-0.039290 -0.013931 0
-0.037798 -0.015766 0
-0.036103 -0.017496 0
-0.034219 -0.019109 0
-0.032159 -0.020592 0
-0.029940 -0.021928 0
-0.027580 -0.023101 0
-0.025100 -0.024088 0
-0.022524 -0.024861 0
-0.019877 -0.025379 0
-0.017191 -0.025590 0
-0.014500 -0.025428 0
-0.011847 -0.024809 0
-0.009282 -0.023636 0
-0.006868 -0.021802 0
-0.004678 -0.019200 0
-0.002796 -0.015741 0
-0.001320 -0.011368 0
-0.000353 -0.006089 0
0.000000 0.000006 0
0.000000 0.000004 0
-0.000482 0.008633 0
-0.001751 0.015684 0
-0.003642 0.021215 0
-0.005997 0.025327 0
-0.008675 0.028162 0
-0.011553 0.029894 0
-0.014530 0.030706 0
-0.017524 0.030779 0
-0.020473 0.030277 0
-0.023334 0.029336 0
-0.026074 0.028068 0
-0.028673 0.026557 0
-0.031116 0.024863 0
-0.033393 0.023029 0
-0.035497 0.021086 0
-0.037423 0.019054 0
-0.039166 0.016947 0
-0.040723 0.014776 0
-0.042087 0.012550 0
-0.043255 0.010275 0
-0.044221 0.007959 0
-0.044979 0.005608 0
-0.045522 0.003232 0
-0.045846 0.000839 0
-0.045943 -0.001561 0
-0.045808 -0.003956 0
-0.045437 -0.006332 0
-0.044826 -0.008675 0
-0.043974 -0.010969 0
-0.042883 -0.013198 0
-0.041556 -0.015345 0
-0.039999 -0.017395 0
-0.038223 -0.019329 0
-0.036240 -0.021133 0
-0.034064 -0.022789 0
-0.031715 -0.024282 0
-0.029214 -0.025590 0
-0.026582 -0.026689 0
-0.023847 -0.027548 0
-0.021037 -0.028122 0
-0.018186 -0.028356 0
-0.015332 -0.028176 0
-0.012520 -0.027491 0
-0.009804 -0.026194 0
-0.007250 -0.024166 0
-0.004935 -0.021290 0
-0.002948 -0.017463 0
-0.001390 -0.012621 0
-0.000372 -0.006766 0
0.000000 0.000007 0
0.000000 0.000004 0
-0.000508 0.009531 0
-0.001847 0.017306 0
-0.003843 0.023393 0
-0.006328 0.027909 0
-0.009152 0.031012 0
-0.012184 0.032895 0
-0.015315 0.033765 0
-0.018460 0.033822 0
-0.021555 0.033250 0
-0.024551 0.032201 0
-0.027419 0.030798 0
-0.030137 0.029133 0
-0.032690 0.027275 0
-0.035071 0.025269 0
-0.037273 0.023147 0
-0.039292 0.020933 0
-0.041124 0.018639 0
-0.042766 0.016277 0
-0.044213 0.013854 0
-0.045460 0.011378 0
-0.046501 0.008855 0
-0.047329 0.006291 0
-0.047938 0.003694 0
-0.048320 0.001073 0
-0.048467 -0.001561 0
-0.048371 -0.004195 0
-0.048026 -0.006816 0
-0.047427 -0.009406 0
-0.046570 -0.011949 0
-0.045455 -0.014425 0
-0.044083 -0.016815 0
-0.042462 -0.019098 0
-0.040599 -0.021256 0
-0.038508 -0.023268 0
-0.036207 -0.025116 0
-0.033714 -0.026779 0
-0.031054 -0.028234 0
-0.028252 -0.029455 0
-0.025338 -0.030405 0
-0.022344 -0.031039 0
-0.019306 -0.031296 0
-0.016267 -0.031094 0
-0.013276 -0.030337 0
-0.010390 -0.028905 0
-0.007679 -0.026671 0
-0.005223 -0.023502 0
-0.003118 -0.019285 0
-0.001469 -0.013944 0
-0.000392 -0.007480 0
0.000000 0.000007 0
0.000000 0.000005 0
-0.000537 0.010479 0
-0.001953 0.019019 0
-0.004064 0.025695 0
-0.006692 0.030635 0
-0.009676 0.034018 0
-0.012876 0.036057 0
-0.016176 0.036983 0
-0.019485 0.037018 0
-0.022734 0.036368 0
-0.025876 0.035201 0
-0.028878 0.033653 0
-0.031721 0.031828 0
-0.034391 0.029797 0