# vtk DataFile Version 2.0
generated by CFD-lab course output (written by Tobias Neckel) 
ASCII

DATASET STRUCTURED_GRID
DIMENSIONS  51 51 1 
POINTS 2601 float

0.000000 0.000000 0
0.020000 0.000000 0
0.040000 0.000000 0
0.060000 0.000000 0
0.080000 0.000000 0
0.100000 0.000000 0
0.120000 0.000000 0
0.140000 0.000000 0
0.160000 0.000000 0
0.180000 0.000000 0
0.200000 0.000000 0
0.220000 0.000000 0
0.240000 0.000000 0
0.260000 0.000000 0
0.280000 0.000000 0
0.300000 0.000000 0
0.320000 0.000000 0
0.340000 0.000000 0
0.360000 0.000000 0
0.380000 0.000000 0
0.400000 0.000000 0
0.420000 0.000000 0
0.440000 0.000000 0
0.460000 0.000000 0
0.480000 0.000000 0
0.500000 0.000000 0
0.520000 0.000000 0
0.540000 0.000000 0
0.560000 0.000000 0
0.580000 0.000000 0
0.600000 0.000000 0
0.620000 0.000000 0
0.640000 0.000000 0
0.660000 0.000000 0
0.680000 0.000000 0
0.700000 0.000000 0
0.720000 0.000000 0
0.740000 0.000000 0
0.760000 0.000000 0
0.780000 0.000000 0
0.800000 0.000000 0
0.820000 0.000000 0
0.840000 0.000000 0
0.860000 0.000000 0
0.880000 0.000000 0
0.900000 0.000000 0
0.920000 0.000000 0
0.940000 0.000000 0
0.960000 0.000000 0
0.980000 0.000000 0
1.000000 0.000000 0
0.000000 0.020000 0
0.020000 0.020000 0
0.040000 0.020000 0
0.060000 0.020000 0
0.080000 0.020000 0
0.100000 0.020000 0
0.120000 0.020000 0
0.140000 0.020000 0
0.160000 0.020000 0
0.180000 0.020000 0
0.200000 0.020000 0
0.220000 0.020000 0
0.240000 0.020000 0
0.260000 0.020000 0
0.280000 0.020000 0
0.300000 0.020000 0
0.320000 0.020000 0
0.340000 0.020000 0
0.360000 0.020000 0
0.380000 0.020000 0
0.400000 0.020000 0
0.420000 0.020000 0
0.440000 0.020000 0
0.460000 0.020000 0
0.480000 0.020000 0
0.500000 0.020000 0
0.520000 0.020000 0
0.540000 0.020000 0
0.560000 0.020000 0
0.580000 0.020000 0
0.600000 0.020000 0
0.620000 0.020000 0
0.640000 0.020000 0
0.660000 0.020000 0
0.680000 0.020000 0
0.700000 0.020000 0
0.720000 0.020000 0
0.740000 0.020000 0
0.760000 0.020000 0
0.780000 0.020000 0
0.800000 0.020000 0
0.820000 0.020000 0
0.840000 0.020000 0
0.860000 0.020000 0
0.880000 0.020000 0
0.900000 0.020000 0
0.920000 0.020000 0
0.940000 0.020000 0
0.960000 0.020000 0
0.980000 0.020000 0
1.000000 0.020000 0
0.000000 0.040000 0
0.020000 0.040000 0
0.040000 0.040000 0
0.060000 0.040000 0
0.080000 0.040000 0
0.100000 0.040000 0
0.120000 0.040000 0
0.140000 0.040000 0
0.160000 0.040000 0
0.180000 0.040000 0
0.200000 0.040000 0
0.220000 0.040000 0
0.240000 0.040000 0
0.260000 0.040000 0
0.280000 0.040000 0
0.300000 0.040000 0
0.320000 0.040000 0
0.340000 0.040000 0
0.360000 0.040000 0
0.380000 0.040000 0
0.400000 0.040000 0
0.420000 0.040000 0
0.440000 0.040000 0
0.460000 0.040000 0
0.480000 0.040000 0
0.500000 0.040000 0
0.520000 0.040000 0
0.540000 0.040000 0
0.560000 0.040000 0
0.580000 0.040000 0
0.600000 0.040000 0
0.620000 0.040000 0
0.640000 0.040000 0
0.660000 0.040000 0
0.680000 0.040000 0
0.700000 0.040000 0
0.720000 0.040000 0
0.740000 0.040000 0
0.760000 0.040000 0
0.780000 0.040000 0
0.800000 0.040000 0
0.820000 0.040000 0
0.840000 0.040000 0
0.860000 0.040000 0
0.880000 0.040000 0
0.900000 0.040000 0
0.920000 0.040000 0
0.940000 0.040000 0
0.960000 0.040000 0
0.980000 0.040000 0
1.000000 0.040000 0
0.000000 0.060000 0
0.020000 0.060000 0
0.040000 0.060000 0
0.060000 0.060000 0
0.080000 0.060000 0
0.100000 0.060000 0
0.120000 0.060000 0
0.140000 0.060000 0
0.160000 0.060000 0
0.180000 0.060000 0
0.200000 0.060000 0
0.220000 0.060000 0
0.240000 0.060000 0
0.260000 0.060000 0
0.280000 0.060000 0
0.300000 0.060000 0
0.320000 0.060000 0
0.340000 0.060000 0
0.360000 0.060000 0
0.380000 0.060000 0
0.400000 0.060000 0
0.420000 0.060000 0
0.440000 0.060000 0
0.460000 0.060000 0
0.480000 0.060000 0
0.500000 0.060000 0
0.520000 0.060000 0
0.540000 0.060000 0
0.560000 0.060000 0
0.580000 0.060000 0
0.600000 0.060000 0
0.620000 0.060000 0
0.640000 0.060000 0
0.660000 0.060000 0
0.680000 0.060000 0
0.700000 0.060000 0
0.720000 0.060000 0
0.740000 0.060000 0
0.760000 0.060000 0
0.780000 0.060000 0
0.800000 0.060000 0
0.820000 0.060000 0
0.840000 0.060000 0
0.860000 0.060000 0
0.880000 0.060000 0
0.900000 0.060000 0
0.920000 0.060000 0
0.940000 0.060000 0
0.960000 0.060000 0
0.980000 0.060000 0
1.000000 0.060000 0
0.000000 0.080000 0
0.020000 0.080000 0
0.040000 0.080000 0
0.060000 0.080000 0
0.080000 0.080000 0
0.100000 0.080000 0
0.120000 0.080000 0
0.140000 0.080000 0
0.160000 0.080000 0
0.180000 0.080000 0
0.200000 0.080000 0
0.220000 0.080000 0
0.240000 0.080000 0
0.260000 0.080000 0
0.280000 0.080000 0
0.300000 0.080000 0
0.320000 0.080000 0
0.340000 0.080000 0
0.360000 0.080000 0
0.380000 0.080000 0
0.400000 0.080000 0
0.420000 0.080000 0
0.440000 0.080000 0
0.460000 0.080000 0
0.480000 0.080000 0
0.500000 0.080000 0
0.520000 0.080000 0
0.540000 0.080000 0
0.560000 0.080000 0
0.580000 0.080000 0
0.600000 0.080000 0
0.620000 0.080000 0
0.640000 0.080000 0
0.660000 0.080000 0
0.680000 0.080000 0
0.700000 0.080000 0
0.720000 0.080000 0
0.740000 0.080000 0
0.760000 0.080000 0
0.780000 0.080000 0
0.800000 0.080000 0
0.820000 0.080000 0
0.840000 0.080000 0
0.860000 0.080000 0
0.880000 0.080000 0
0.900000 0.080000 0
0.920000 0.080000 0
0.940000 0.080000 0
0.960000 0.080000 0
0.980000 0.080000 0
1.000000 0.080000 0
0.000000 0.100000 0
0.020000 0.100000 0
0.040000 0.100000 0
0.060000 0.100000 0
0.080000 0.100000 0
0.100000 0.100000 0
0.120000 0.100000 0
0.140000 0.100000 0
0.160000 0.100000 0
0.180000 0.100000 0
0.200000 0.100000 0
0.220000 0.100000 0
0.240000 0.100000 0
0.260000 0.100000 0
0.280000 0.100000 0
0.300000 0.100000 0
0.320000 0.100000 0
0.340000 0.100000 0
0.360000 0.100000 0
0.380000 0.100000 0
0.400000 0.100000 0
0.420000 0.100000 0
0.440000 0.100000 0
0.460000 0.100000 0
0.480000 0.100000 0
0.500000 0.100000 0
0.520000 0.100000 0
0.540000 0.100000 0
0.560000 0.100000 0
0.580000 0.100000 0
0.600000 0.100000 0
0.620000 0.100000 0
0.640000 0.100000 0
0.660000 0.100000 0
0.680000 0.100000 0
0.700000 0.100000 0
0.720000 0.100000 0
0.740000 0.100000 0
0.760000 0.100000 0
0.780000 0.100000 0
0.800000 0.100000 0
0.820000 0.100000 0
0.840000 0.100000 0
0.860000 0.100000 0
0.880000 0.100000 0
0.900000 0.100000 0
0.920000 0.100000 0
0.940000 0.100000 0
0.960000 0.100000 0
0.980000 0.100000 0
1.000000 0.100000 0
0.000000 0.120000 0
0.020000 0.120000 0
0.040000 0.120000 0
0.060000 0.120000 0
0.080000 0.120000 0
0.100000 0.120000 0
0.120000 0.120000 0
0.140000 0.120000 0
0.160000 0.120000 0
0.180000 0.120000 0
0.200000 0.120000 0
0.220000 0.120000 0
0.240000 0.120000 0
0.260000 0.120000 0
0.280000 0.120000 0
0.300000 0.120000 0
0.320000 0.120000 0
0.340000 0.120000 0
0.360000 0.120000 0
0.380000 0.120000 0
0.400000 0.120000 0
0.420000 0.120000 0
0.440000 0.120000 0
0.460000 0.120000 0
0.480000 0.120000 0
0.500000 0.120000 0
0.520000 0.120000 0
0.540000 0.120000 0
0.560000 0.120000 0
0.580000 0.120000 0
0.600000 0.120000 0
0.620000 0.120000 0
0.640000 0.120000 0
0.660000 0.120000 0
0.680000 0.120000 0
0.700000 0.120000 0
0.720000 0.120000 0
0.740000 0.120000 0
0.760000 0.120000 0
0.780000 0.120000 0
0.800000 0.120000 0
0.820000 0.120000 0
0.840000 0.120000 0
0.860000 0.120000 0
0.880000 0.120000 0
0.900000 0.120000 0
0.920000 0.120000 0
0.940000 0.120000 0
0.960000 0.120000 0
0.980000 0.120000 0
1.000000 0.120000 0
0.000000 0.140000 0
0.020000 0.140000 0
0.040000 0.140000 0
0.060000 0.140000 0
0.080000 0.140000 0
0.100000 0.140000 0
0.120000 0.140000 0
0.140000 0.140000 0
0.160000 0.140000 0
0.180000 0.140000 0
0.200000 0.140000 0
0.220000 0.140000 0
0.240000 0.140000 0
0.260000 0.140000 0
0.280000 0.140000 0
0.300000 0.140000 0
0.320000 0.140000 0
0.340000 0.140000 0
0.360000 0.140000 0
0.380000 0.140000 0
0.400000 0.140000 0
0.420000 0.140000 0
0.440000 0.140000 0
0.460000 0.140000 0
0.480000 0.140000 0
0.500000 0.140000 0
0.520000 0.140000 0
0.540000 0.140000 0
0.560000 0.140000 0
0.580000 0.140000 0
0.600000 0.140000 0
0.620000 0.140000 0
0.640000 0.140000 0
0.660000 0.140000 0
0.680000 0.140000 0
0.700000 0.140000 0
0.720000 0.140000 0
0.740000 0.140000 0
0.760000 0.140000 0
0.780000 0.140000 0
0.800000 0.140000 0
0.820000 0.140000 0
0.840000 0.140000 0
0.860000 0.140000 0
0.880000 0.140000 0
0.900000 0.140000 0
0.920000 0.140000 0
0.940000 0.140000 0
0.960000 0.140000 0
0.980000 0.140000 0
1.000000 0.140000 0
0.000000 0.160000 0
0.020000 0.160000 0
0.040000 0.160000 0
0.060000 0.160000 0
0.080000 0.160000 0
0.100000 0.160000 0
0.120000 0.160000 0
0.140000 0.160000 0
0.160000 0.160000 0
0.180000 0.160000 0
0.200000 0.160000 0
0.220000 0.160000 0
0.240000 0.160000 0
0.260000 0.160000 0
0.280000 0.160000 0
0.300000 0.160000 0
0.320000 0.160000 0
0.340000 0.160000 0
0.360000 0.160000 0
0.380000 0.160000 0
0.400000 0.160000 0
0.420000 0.160000 0
0.440000 0.160000 0
0.460000 0.160000 0
0.480000 0.160000 0
0.500000 0.160000 0
0.520000 0.160000 0
0.540000 0.160000 0
0.560000 0.160000 0
0.580000 0.160000 0
0.600000 0.160000 0
0.620000 0.160000 0
0.640000 0.160000 0
0.660000 0.160000 0
0.680000 0.160000 0
0.700000 0.160000 0
0.720000 0.160000 0
0.740000 0.160000 0
0.760000 0.160000 0
0.780000 0.160000 0
0.800000 0.160000 0
0.820000 0.160000 0
0.840000 0.160000 0
0.860000 0.160000 0
0.880000 0.160000 0
0.900000 0.160000 0
0.920000 0.160000 0
0.940000 0.160000 0
0.960000 0.160000 0
0.980000 0.160000 0
1.000000 0.160000 0
0.000000 0.180000 0
0.020000 0.180000 0
0.040000 0.180000 0
0.060000 0.180000 0
0.080000 0.180000 0
0.100000 0.180000 0
0.120000 0.180000 0
0.140000 0.180000 0
0.160000 0.180000 0
0.180000 0.180000 0
0.200000 0.180000 0
0.220000 0.180000 0
0.240000 0.180000 0
0.260000 0.180000 0
0.280000 0.180000 0
0.300000 0.180000 0
0.320000 0.180000 0
0.340000 0.180000 0
0.360000 0.180000 0
0.380000 0.180000 0
0.400000 0.180000 0
0.420000 0.180000 0
0.440000 0.180000 0
0.460000 0.180000 0
0.480000 0.180000 0
0.500000 0.180000 0
0.520000 0.180000 0
0.540000 0.180000 0
0.560000 0.180000 0
0.580000 0.180000 0
0.600000 0.180000 0
0.620000 0.180000 0
[...]
POINT_DATA 2601 

VECTORS velocity float
0.000000 0.000000 0
0.000000 0.000000 0
0.000000 0.000000 0
0.000000 0.000000 0
0.000000 0.000000 0
0.000000 0.000000 0
-0.000000 0.000000 0
-0.000000 0.000000 0
-0.000000 0.000000 0
-0.000000 0.000000 0
-0.000000 0.000000 0
-0.000000 0.000000 0
-0.000000 0.000000 0
-0.000001 0.000000 0
-0.000001 0.000000 0
-0.000001 0.000000 0
-0.000001 0.000000 0
-0.000001 0.000000 0
-0.000000 0.000000 0
-0.000000 0.000000 0
-0.000000 0.000000 0
-0.000000 0.000000 0
-0.000000 0.000000 0
0.000000 0.000000 0
0.000000 0.000000 0
0.000000 0.000000 0
0.000000 0.000000 0
0.000000 0.000000 0
0.000000 0.000000 0
0.000000 0.000000 0
0.000000 0.000000 0
0.000000 0.000000 0
0.000000 0.000000 0
0.000000 0.000000 0
0.000000 0.000000 0
0.000000 0.000000 0
0.000000 0.000000 0
0.000000 0.000000 0
0.000000 0.000000 0
0.000000 0.000000 0
0.000000 0.000000 0
0.000000 0.000000 0
0.000000 0.000000 0
0.000000 0.000000 0
0.000000 0.000000 0
0.000000 0.000000 0
0.000000 0.000000 0
0.000000 0.000000 0
0.000000 0.000000 0
0.000000 0.000000 0
0.000000 0.000000 0
0.000000 0.000000 0
-0.000007 0.000009 0
-0.000337 0.000233 0
-0.001069 0.000482 0
-0.002168 0.000689 0
-0.003549 0.000830 0
-0.005100 0.000899 0
-0.006707 0.000896 0
-0.008257 0.000830 0
-0.009652 0.000712 0
-0.010814 0.000553 0
-0.011684 0.000370 0
-0.012228 0.000174 0
-0.012431 -0.000023 0
-0.012298 -0.000212 0
-0.011844 -0.000385 0
-0.011101 -0.000536 0
-0.010103 -0.000662 0
-0.008896 -0.000762 0
-0.007524 -0.000834 0
-0.006034 -0.000879 0
-0.004472 -0.000898 0
-0.002883 -0.000893 0
-0.001307 -0.000866 0
0.000219 -0.000821 0
0.001662 -0.000759 0
0.002997 -0.000686 0
0.004201 -0.000604 0
0.005259 -0.000515 0
0.006161 -0.000423 0
0.006900 -0.000330 0
0.007474 -0.000237 0
0.007885 -0.000147 0
0.008138 -0.000061 0
0.008239 0.000021 0
0.008196 0.000097 0
0.008019 0.000167 0
0.007718 0.000231 0
0.007304 0.000290 0
0.006788 0.000342 0
0.006181 0.000388 0
0.005495 0.000428 0
0.004745 0.000458 0
0.003949 0.000478 0
0.003130 0.000482 0
0.002318 0.000466 0
0.001552 0.000421 0
0.000884 0.000339 0
0.000370 0.000215 0
0.000069 0.000068 0
0.000000 0.000000 0
0.000000 0.000000 0
-0.000217 0.000336 0
-0.001035 0.001062 0
-0.002495 0.001831 0
-0.004534 0.002480 0
-0.007021 0.002932 0
-0.009785 0.003158 0
-0.012642 0.003156 0
-0.015410 0.002945 0
-0.017928 0.002557 0
-0.020060 0.002031 0
-0.021705 0.001414 0
-0.022800 0.000747 0
-0.023313 0.000069 0
-0.023243 -0.000588 0
-0.022613 -0.001198 0
-0.021466 -0.001742 0
-0.019859 -0.002205 0
-0.017862 -0.002580 0
-0.015549 -0.002863 0
-0.013000 -0.003052 0
-0.010294 -0.003151 0
-0.007507 -0.003165 0
-0.004712 -0.003102 0
-0.001974 -0.002970 0
0.000647 -0.002778 0
0.003099 -0.002538 0
0.005341 -0.002262 0
0.007341 -0.001960 0
0.009076 -0.001641 0
0.010531 -0.001314 0
0.011698 -0.000986 0
0.012578 -0.000664 0
0.013174 -0.000353 0
0.013498 -0.000058 0
0.013560 0.000220 0
0.013378 0.000478 0
0.012969 0.000715 0
0.012351 0.000930 0
0.011545 0.001124 0
0.010571 0.001293 0
0.009453 0.001436 0
0.008217 0.001546 0
0.006897 0.001615 0
0.005532 0.001631 0
0.004172 0.001578 0
0.002880 0.001434 0
0.001734 0.001182 0
0.000818 0.000815 0
0.000217 0.000370 0
0.000000 0.000000 0
0.000000 0.000001 0
-0.000450 0.001045 0
-0.001775 0.002512 0
-0.003930 0.003981 0
-0.006805 0.005214 0
-0.010234 0.006080 0
-0.014008 0.006519 0
-0.017901 0.006521 0
-0.021688 0.006116 0
-0.025166 0.005361 0
-0.028160 0.004331 0
-0.030541 0.003110 0
-0.032218 0.001781 0
-0.033143 0.000419 0
-0.033308 -0.000913 0
-0.032733 -0.002163 0
-0.031465 -0.003290 0
-0.029571 -0.004266 0
-0.027133 -0.005071 0
-0.024242 -0.005695 0
-0.020998 -0.006134 0
-0.017500 -0.006391 0
-0.013849 -0.006475 0
-0.010139 -0.006399 0
-0.006461 -0.006179 0
-0.002895 -0.005833 0
0.000489 -0.005381 0
0.003627 -0.004846 0
0.006471 -0.004250 0
0.008982 -0.003613 0
0.011137 -0.002952 0
0.012920 -0.002284 0
0.014324 -0.001623 0
0.015352 -0.000980 0
0.016012 -0.000365 0
0.016319 0.000216 0
0.016292 0.000758 0
0.015951 0.001258 0
0.015323 0.001714 0
0.014434 0.002122 0
0.013311 0.002480 0
0.011988 0.002781 0
0.010499 0.003014 0
0.008887 0.003164 0
0.007202 0.003208 0
0.005508 0.003117 0
0.003878 0.002859 0
0.002404 0.002402 0
0.001187 0.001732 0
0.000342 0.000886 0
0.000000 0.000000 0
0.000000 0.000001 0
-0.000652 0.002112 0
-0.002439 0.004542 0
-0.005226 0.006861 0
-0.008850 0.008783 0
-0.013108 0.010134 0
-0.017764 0.010825 0
-0.022562 0.010837 0
-0.027250 0.010210 0
-0.031597 0.009028 0
-0.035403 0.007406 0
-0.038515 0.005470 0
-0.040824 0.003349 0
-0.042266 0.001159 0
-0.042822 -0.000998 0
-0.042506 -0.003041 0
-0.041362 -0.004904 0
-0.039457 -0.006538 0
-0.036876 -0.007909 0
-0.033719 -0.008997 0
-0.030093 -0.009794 0
-0.026110 -0.010300 0
-0.021885 -0.010526 0
-0.017529 -0.010490 0
-0.013148 -0.010215 0
-0.008840 -0.009728 0
-0.004695 -0.009061 0
-0.000787 -0.008245 0
0.002815 -0.007315 0
0.006058 -0.006307 0
0.008904 -0.005251 0
0.011327 -0.004173 0
0.013313 -0.003096 0
0.014858 -0.002042 0
0.015967 -0.001025 0
0.016651 -0.000059 0
0.016930 0.000846 0
0.016827 0.001683 0
0.016369 0.002448 0
0.015588 0.003136 0
0.014517 0.003739 0
0.013193 0.004248 0
0.011658 0.004647 0
0.009960 0.004912 0
0.008154 0.005011 0
0.006309 0.004902 0
0.004506 0.004538 0
0.002842 0.003873 0
0.001434 0.002876 0
0.000425 0.001558 0
0.000000 0.000000 0
0.000000 0.000001 0
-0.000814 0.003484 0
-0.002998 0.007086 0
-0.006340 0.010392 0
-0.010628 0.013096 0
-0.015626 0.014994 0
-0.021070 0.015973 0
-0.026687 0.016008 0
-0.032204 0.015150 0
-0.037371 0.013513 0
-0.041973 0.011249 0
-0.045837 0.008530 0
-0.048839 0.005532 0
-0.050903 0.002417 0
-0.051995 -0.000673 0
-0.052122 -0.003623 0
-0.051318 -0.006339 0
-0.049646 -0.008752 0
-0.047186 -0.010809 0
-0.044036 -0.012478 0
-0.040306 -0.013742 0
-0.036111 -0.014598 0
-0.031572 -0.015056 0
-0.026809 -0.015137 0
-0.021940 -0.014868 0
-0.017076 -0.014287 0
-0.012320 -0.013434 0
-0.007763 -0.012355 0
-0.003485 -0.011096 0
0.000447 -0.009702 0
0.003978 -0.008221 0
0.007068 -0.006693 0
0.009692 -0.005154 0
0.011837 -0.003634 0
0.013502 -0.002158 0
0.014692 -0.000747 0
0.015424 0.000583 0
0.015717 0.001819 0
0.015602 0.002952 0
0.015110 0.003974 0
0.014277 0.004875 0
0.013144 0.005640 0
0.011753 0.006248 0
0.010155 0.006668 0
0.008409 0.006859 0
0.006582 0.006766 0
0.004759 0.006326 0
0.003040 0.005473 0
0.001555 0.004148 0
0.000467 0.002320 0
0.000000 0.000000 0
0.000000 0.000000 0
-0.000942 0.005109 0
-0.003453 0.010067 0
-0.007271 0.014491 0
-0.012141 0.018069 0
-0.017796 0.020576 0
-0.023954 0.021886 0
-0.030324 0.021970 0
-0.036620 0.020894 0
-0.042581 0.018796 0
-0.047977 0.015871 0
-0.052625 0.012337 0
-0.056387 0.008415 0
-0.059174 0.004315 0
-0.060939 0.000221 0
-0.061675 -0.003718 0
-0.061407 -0.007380 0
-0.060185 -0.010670 0
-0.058082 -0.013518 0
-0.055188 -0.015877 0
-0.051604 -0.017719 0
-0.047445 -0.019034 0
-0.042829 -0.019828 0
-0.037881 -0.020122 0
-0.032724 -0.019948 0
-0.027477 -0.019348 0
-0.022254 -0.018374 0
-0.017159 -0.017080 0
-0.012285 -0.015525 0
-0.007714 -0.013770 0
-0.003512 -0.011872 0
0.000265 -0.009887 0
0.003579 -0.007865 0
0.006403 -0.005851 0
0.008725 -0.003880 0
0.010543 -0.001981 0
0.011868 -0.000180 0
0.012714 0.001505 0
0.013106 0.003055 0
0.013075 0.004460 0
0.012658 0.005705 0
0.011895 0.006773 0
0.010828 0.007635 0
0.009507 0.008256 0
0.007990 0.008584 0
0.006343 0.008552 0
0.004649 0.008080 0
0.003009 0.007077 0
0.001558 0.005449 0
0.000474 0.003113 0
0.000000 0.000000 0
0.000000 0.000000 0
-0.001041 0.006937 0
-0.003818 0.013414 0
-0.008034 0.019079 0
-0.013405 0.023621 0
-0.019641 0.026807 0
-0.026443 0.028500 0
-0.033507 0.028673 0
-0.040541 0.027407 0
-0.047273 0.024869 0
-0.053467 0.021293 0
-0.058931 0.016940 0
-0.063515 0.012081 0
-0.067118 0.006969 0
-0.069678 0.001828 0
-0.071175 -0.003155 0
-0.071618 -0.007829 0
-0.071045 -0.012076 0
-0.069513 -0.015807 0
-0.067099 -0.018957 0
-0.063892 -0.021486 0
-0.059998 -0.023374 0
-0.055529 -0.024620 0
-0.050606 -0.025242 0
-0.045352 -0.025273 0
-0.039891 -0.024757 0
-0.034343 -0.023753 0
-0.028824 -0.022324 0
-0.023438 -0.020540 0
-0.018279 -0.018475 0
-0.013430 -0.016200 0
-0.008959 -0.013784 0
-0.004918 -0.011292 0
-0.001349 -0.008780 0
0.001723 -0.006299 0
0.004284 -0.003890 0
0.006334 -0.001588 0
0.007880 0.000581 0
0.008939 0.002591 0
0.009537 0.004422 0
0.009707 0.006056 0
0.009486 0.007471 0
0.008916 0.008635 0
0.008043 0.009506 0
0.006920 0.010023 0
0.005610 0.010108 0
0.004190 0.009661 0
0.002759 0.008564 0
0.001451 0.006684 0
0.000448 0.003878 0
0.000000 0.000000 0
0.000000 0.000000 0
-0.001115 0.008926 0
-0.004104 0.017060 0
-0.008647 0.024078 0
-0.014442 0.029676 0
-0.021183 0.033614 0
-0.028559 0.035752 0
-0.036261 0.036068 0
-0.043988 0.034659 0
-0.051467 0.031723 0
-0.058458 0.027529 0
-0.064759 0.022384 0
-0.070215 0.016602 0
-0.074712 0.010479 0
-0.078175 0.004278 0
-0.080564 -0.001778 0
-0.081876 -0.007510 0
-0.082128 -0.012775 0
-0.081360 -0.017466 0
-0.079631 -0.021499 0
-0.077014 -0.024820 0
-0.073600 -0.027398 0
-0.069490 -0.029220 0
-0.064795 -0.030299 0
-0.059633 -0.030663 0
-0.054128 -0.030357 0
-0.048404 -0.029441 0
-0.042581 -0.027985 0
-0.036774 -0.026070 0
-0.031091 -0.023777 0
-0.025627 -0.021193 0
-0.020466 -0.018399 0
-0.015676 -0.015475 0
-0.011314 -0.012492 0
-0.007417 -0.009513 0
-0.004015 -0.006593 0
-0.001121 -0.003776 0
0.001262 -0.001101 0
0.003141 0.001399 0
0.004530 0.003693 0
0.005453 0.005757 0
0.005943 0.007564 0
0.006039 0.009078 0
0.005780 0.010252 0
0.005214 0.011017 0
0.004395 0.011282 0
0.003394 0.010931 0
0.002302 0.009815 0
0.001243 0.007760 0
0.000394 0.004564 0
0.000000 0.000000 0
0.000000 0.000000 0
-0.001171 0.011040 0
-0.004322 0.020945 0
-0.009128 0.029417 0
-0.015273 0.036158 0
-0.022443 0.040924 0
-0.030323 0.043577 0
-0.038598 0.044102 0
-0.046970 0.042613 0
-0.055163 0.039339 0
-0.062936 0.034584 0
-0.070084 0.028698 0
-0.076445 0.022034 0
-0.081894 0.014929 0
-0.086344 0.007680 0
-0.089738 0.000546 0
-0.092050 -0.006266 0
-0.093280 -0.012593 0
-0.093447 -0.018305 0
-0.092588 -0.023303 0
-0.090759 -0.027516 0
-0.088027 -0.030898 0
-0.084479 -0.033426 0
-0.080210 -0.035099 0
-0.075330 -0.035939 0
-0.069955 -0.035987 0
-0.064209 -0.035300 0
-0.058214 -0.033953 0
-0.052094 -0.032030 0
-0.045966 -0.029622 0
-0.039938 -0.026825 0
-0.034108 -0.023735 0
-0.028562 -0.020445 0
-0.023372 -0.017039 0
-0.018593 -0.013597 0
-0.014270 -0.010187 0
-0.010431 -0.006865 0
-0.007091 -0.003681 0
-0.004256 -0.000676 0
-0.001923 0.002110 0
-0.000085 0.004642 0
0.001283 0.006885 0
0.002211 0.008799 0
0.002731 0.010331 0
0.002882 0.011408 0
0.002709 0.011927 0
0.002270 0.011755 0
0.001642 0.010715 0
0.000937 0.008591 0
0.000313 0.005121 0
0.000000 0.000000 0
0.000000 0.000000 0
-0.001210 0.013247 0
-0.004482 0.025017 0
-0.009489 0.035029 0
-0.015914 0.042992 0
-0.023440 0.048664 0
-0.031749 0.051907 0
-0.040531 0.052715 0
-0.049488 0.051224 0
-0.058350 0.047688 0
-0.066875 0.042449 0
-0.074859 0.035893 0
-0.082135 0.028413 0
-0.088572 0.020378 0
-0.094067 0.012122 0
-0.098549 0.003928 0
-0.101968 -0.003969 0
-0.104304 -0.011379 0
-0.105554 -0.018157 0
-0.105731 -0.024187 0
-0.104866 -0.029382 0
-0.103006 -0.033678 0
-0.100212 -0.037038 0
-0.096563 -0.039448 0
-0.092154 -0.040918 0
-0.087090 -0.041478 0
-0.081486 -0.041182 0
-0.075467 -0.040100 0
-0.069157 -0.038319 0
-0.062681 -0.035934 0
-0.056160 -0.033051 0
-0.049705 -0.029775 0
-0.043418 -0.026211 0
-0.037387 -0.022460 0
-0.031689 -0.018614 0
-0.026382 -0.014755 0
-0.021513 -0.010955 0
-0.017114 -0.007276 0
-0.013206 -0.003769 0
-0.009796 -0.000478 0
-0.006889 0.002550 0
-0.004483 0.005268 0
-0.002560 0.007631 0
-0.001098 0.009581 0
-0.000071 0.011039 0
0.000555 0.011895 0
0.000820 0.011998 0
0.000783 0.011148 0
0.000534 0.009089 0
0.000206 0.005501 0
0.000000 0.000000 0
0.000000 0.000000 0
-0.001234 0.015521 0
-0.004590 0.029225 0
-0.009744 0.040850 0
-0.016382 0.050108 0
-0.024188 0.056759 0
-0.032852 0.060668 0
-0.042067 0.061841 0
-0.051543 0.060433 0
-0.061014 0.056725 0
-0.070244 0.051094 0
-0.079033 0.043959 0
-0.087211 0.035747 0
-0.094641 0.026860 0
-0.101211 0.017657 0
-0.106833 0.008447 0
-0.111439 -0.000511 0
-0.114981 -0.009007 0
-0.117433 -0.016878 0
-0.118785 -0.023991 0
-0.119042 -0.030242 0
-0.118223 -0.035553 0
-0.116365 -0.039868 0
-0.113525 -0.043157 0
-0.109774 -0.045413 0
-0.105204 -0.046654 0
-0.099919 -0.046923 0
-0.094034 -0.046283 0
-0.087676 -0.044816 0
-0.080972 -0.042619 0
-0.074051 -0.039802 0
-0.067038 -0.036477 0
-0.060049 -0.032762 0
-0.053191 -0.028768 0
-0.046557 -0.024603 0
-0.040227 -0.020362 0
-0.034265 -0.016132 0
-0.028723 -0.011989 0
-0.023638 -0.007995 0
-0.019035 -0.004206 0
-0.014931 -0.000671 0
-0.011338 0.002556 0
-0.008264 0.005414 0
-0.005702 0.007842 0
-0.003641 0.009755 0
-0.002066 0.011037 0
-0.000956 0.011526 0
-0.000276 0.011001 0
0.000033 0.009168 0
0.000071 0.005655 0
0.000000 0.000000 0
0.000000 0.000001 0
-0.001247 0.017837 0
-0.004653 0.033526 0
-0.009903 0.046820 0
-0.016690 0.057436 0
-0.024706 0.065134 0
-0.033647 0.069785 0
-0.043216 0.071406 0
-0.053134 0.070171 0
-0.063143 0.066390 0
-0.073017 0.060469 0
-0.082557 0.052860 0
-0.091598 0.044021 0
-0.099999 0.034378 0
-0.107641 0.024314 0
-0.114423 0.014155 0
-0.120259 0.004179 0
-0.125074 -0.005385 0
-0.128820 -0.014353 0
-0.131458 -0.022579 0
-0.132967 -0.029945 0
-0.133340 -0.036355 0
-0.132584 -0.041736 0
-0.130729 -0.046039 0
-0.127821 -0.049238 0
-0.123931 -0.051334 0
-0.119145 -0.052352 0
-0.113569 -0.052343 0
-0.107320 -0.051381 0
-0.100528 -0.049559 0
-0.093325 -0.046985 0
-0.085846 -0.043777 0
-0.078221 -0.040058 0
-0.070574 -0.035952 0
-0.063015 -0.031578 0
-0.055646 -0.027047 0
-0.048552 -0.022459 0
-0.041803 -0.017903 0
-0.035459 -0.013456 0
-0.029564 -0.009185 0
-0.024152 -0.005147 0
-0.019249 -0.001400 0
-0.014880 0.001994 0
-0.011067 0.004958 0
-0.007822 0.007404 0
-0.005151 0.009210 0
-0.003057 0.010208 0
-0.001536 0.010159 0
-0.000567 0.008742 0
-0.000092 0.005534 0
0.000000 -0.000000 0
0.000000 0.000001 0
-0.001249 0.020174 0
-0.004675 0.037881 0
-0.009976 0.052887 0
-0.016853 0.064910 0
-0.025009 0.073716 0
-0.034150 0.079178 0
-0.043993 0.081329 0
-0.054270 0.080360 0
-0.064735 0.076608 0
-0.075171 0.070507 0
-0.085391 0.062540 0
-0.095231 0.053189 0
-0.104552 0.042903 0
-0.113231 0.032081 0
-0.121157 0.021064 0
-0.128228 0.010140 0
-0.134353 -0.000446 0
-0.139449 -0.010494 0
-0.143453 -0.019843 0
-0.146317 -0.028361 0
-0.148005 -0.035937 0
-0.148495 -0.042479 0
-0.147786 -0.047919 0
-0.145897 -0.052210 0
-0.142869 -0.055331 0
-0.138768 -0.057286 0
-0.133681 -0.058108 0
-0.127715 -0.057857 0
-0.120993 -0.056614 0
-0.113647 -0.054483 0
-0.105820 -0.051581 0
-0.097651 -0.048034 0
-0.089280 -0.043974 0
-0.080836 -0.039530 0
-0.072439 -0.034826 0
-0.064198 -0.029975 0
-0.056205 -0.025081 0
-0.048542 -0.020234 0
-0.041274 -0.015513 0
-0.034458 -0.010985 0
-0.028142 -0.006716 0
-0.022365 -0.002768 0
-0.017169 0.000783 0
-0.012597 0.003839 0
-0.008689 0.006272 0
-0.005478 0.007912 0
-0.002996 0.008511 0
-0.001266 0.007725 0
-0.000284 0.005088 0
0.000000 -0.000000 0
0.000000 0.000001 0
-0.001242 0.022512 0
-0.004663 0.042253 0
-0.009972 0.058998 0
-0.016884 0.072468 0
-0.025114 0.082432 0
-0.034381 0.088769 0
-0.044415 0.091525 0
-0.054962 0.090913 0
-0.065792 0.087292 0
-0.076700 0.081125 0
-0.087509 0.072920 0
-0.098063 0.063181 0
-0.108226 0.052377 0
-0.117875 0.040918 0
-0.126894 0.029153 0
-0.135171 0.017376 0
-0.142597 0.005836 0
-0.149065 -0.005253 0
-0.154480 -0.015711 0
-0.158769 -0.025393 0
-0.161866 -0.034177 0
-0.163720 -0.041955 0
-0.164298 -0.048638 0
-0.163586 -0.054155 0
-0.161594 -0.058462 0
-0.158361 -0.061540 0
-0.153950 -0.063396 0
-0.148450 -0.064070 0
-0.141971 -0.063627 0
-0.134642 -0.062158 0
-0.126606 -0.059773 0
-0.118011 -0.056598 0
-0.109009 -0.052768 0
-0.099745 -0.048419 0
-0.090361 -0.043685 0
-0.080987 -0.038693 0
-0.071738 -0.033560 0
-0.062720 -0.028388 0
-0.054024 -0.023268 0
-0.045730 -0.018279 0
-0.037910 -0.013493 0
-0.030628 -0.008978 0
-0.023947 -0.004809 0
-0.017934 -0.001077 0
-0.012662 0.002091 0
-0.008209 0.004515 0
-0.004651 0.005947 0
-0.002063 0.006030 0
-0.000504 0.004268 0
0.000000 -0.000000 0
0.000000 0.000001 0
-0.001227 0.024836 0
-0.004620 0.046612 0
-0.009902 0.065108 0
-0.016800 0.080052 0
-0.025041 0.091212 0
-0.034361 0.098479 0
-0.044503 0.101910 0
-0.055231 0.101737 0
-0.066329 0.098346 0
-0.077608 0.092224 0
-0.088901 0.083902 0
-0.100064 0.073905 0
-0.110967 0.062715 0
-0.121491 0.050749 0
-0.131520 0.038361 0
-0.140934 0.025844 0
-0.149612 0.013447 0
-0.157432 0.001389 0
-0.164270 -0.010139 0
-0.170016 -0.020976 0
-0.174582 -0.030985 0
-0.177887 -0.040047 0
-0.179864 -0.048054 0
-0.180466 -0.054914 0
-0.179670 -0.060555 0
-0.177480 -0.064930 0
-0.173930 -0.068020 0
-0.169083 -0.069836 0
-0.163033 -0.070422 0
-0.155897 -0.069848 0
-0.147813 -0.068212 0
-0.138933 -0.065632 0
-0.129417 -0.062240 0
-0.119428 -0.058177 0
-0.109124 -0.053584 0
-0.098657 -0.048598 0
-0.088169 -0.043348 0
-0.077790 -0.037948 0
-0.067636 -0.032503 0
-0.057815 -0.027100 0
-0.048424 -0.021818 0
-0.039556 -0.016730 0
-0.031302 -0.011911 0
-0.023758 -0.007446 0
-0.017026 -0.003453 0
-0.011226 -0.000099 0
-0.006489 0.002365 0
-0.002953 0.003578 0
-0.000753 0.003026 0
0.000000 -0.000000 0
0.000000 0.000001 0
-0.001206 0.027132 0
-0.004552 0.050928 0
-0.009775 0.071177 0
-0.016614 0.087607 0
-0.024811 0.099993 0
-0.034114 0.108231 0
-0.044286 0.112396 0
-0.055104 0.112739 0
-0.066371 0.109669 0
-0.077911 0.103696 0
-0.089574 0.095375 0
-0.101227 0.085248 0
-0.112750 0.073805 0
-0.124029 0.061470 0
-0.134953 0.048595 0
-0.145400 0.035468 0
-0.155245 0.022334 0
-0.164352 0.009404 0
-0.172578 -0.003127 0
-0.179779 -0.015081 0
-0.185835 -0.026307 0
-0.190641 -0.036673 0
-0.194098 -0.046058 0
-0.196124 -0.054349 0
-0.196660 -0.061449 0
-0.195672 -0.067280 0
-0.193159 -0.071793 0
-0.189154 -0.074966 0
-0.183725 -0.076813 0
-0.176970 -0.077377 0
-0.169016 -0.076737 0
-0.160014 -0.074994 0
-0.150127 -0.072273 0
-0.139531 -0.068712 0
-0.128401 -0.064456 0
-0.116912 -0.059648 0
-0.105228 -0.054427 0
-0.093508 -0.048921 0
-0.081895 -0.043243 0
-0.070525 -0.037491 0
-0.059524 -0.031752 0
-0.049016 -0.026100 0
-0.039122 -0.020607 0
-0.029971 -0.015353 0
-0.021704 -0.010441 0
-0.014481 -0.006022 0
-0.008485 -0.002326 0
-0.003926 0.000294 0
-0.001026 0.001316 0
0.000000 -0.000000 0
0.000000 0.000001 0
-0.001180 0.029388 0
-0.004464 0.055181 0
-0.009601 0.077170 0
-0.016342 0.095088 0
-0.024444 0.108713 0
-0.033669 0.117954 0
-0.043794 0.122900 0
-0.054614 0.123822 0
-0.065949 0.121153 0
-0.077641 0.115427 0
-0.089552 0.107217 0
-0.101565 0.097081 0
-0.113571 0.085518 0
-0.125466 0.072952 0
-0.137145 0.059731 0
-0.148492 0.046136 0
-0.159379 0.032399 0
-0.169665 0.018721 0
-0.179196 0.005287 0
-0.187808 -0.007718 0
-0.195340 -0.020123 0
-0.201658 -0.031785 0
-0.206636 -0.042571 0
-0.210162 -0.052352 0
-0.212136 -0.061007 0
-0.212487 -0.068430 0
-0.211174 -0.074537 0
-0.208193 -0.079270 0
-0.203577 -0.082606 0
-0.197399 -0.084556 0
-0.189768 -0.085168 0
-0.180824 -0.084521 0
-0.170732 -0.082723 0
-0.159673 -0.079903 0
-0.147838 -0.076203 0
-0.135423 -0.071771 0
-0.122616 -0.066752 0
-0.109603 -0.061282 0
-0.096557 -0.055486 0
-0.083645 -0.049470 0
-0.071025 -0.043327 0
-0.058851 -0.037133 0
-0.047279 -0.030955 0
-0.036473 -0.024864 0
-0.026614 -0.018943 0
-0.017909 -0.013318 0
-0.010600 -0.008189 0
-0.004965 -0.003881 0
-0.001320 -0.000901 0
0.000000 -0.000001 0
0.000000 0.000001 0
-0.001151 0.031595 0
-0.004360 0.059349 0
-0.009389 0.083056 0
-0.016001 0.102451 0
-0.023963 0.117319 0
-0.033052 0.127581 0
-0.043060 0.133341 0
-0.053799 0.134894 0
-0.065105 0.132695 0
-0.076836 0.127299 0
-0.088872 0.119299 0
-0.101109 0.109266 0
-0.113451 0.097707 0
-0.125808 0.085045 0
-0.138083 0.071620 0
-0.150169 0.057702 0
-0.161943 0.043508 0
-0.173264 0.029222 0
-0.183974 0.015016 0
-0.193899 0.001062 0
-0.202850 -0.012457 0
-0.210649 -0.025376 0
-0.217150 -0.037554 0