# vtk DataFile Version 2.0
generated by CFD-lab course output (written by Tobias Neckel) 
ASCII

DATASET STRUCTURED_GRID
DIMENSIONS  51 51 1 
POINTS 2601 float

0.000000 0.000000 0
0.020000 0.000000 0
0.040000 0.000000 0
0.060000 0.000000 0
0.080000 0.000000 0
0.100000 0.000000 0
0.120000 0.000000 0
0.140000 0.000000 0
0.160000 0.000000 0
0.180000 0.000000 0
0.200000 0.000000 0
0.220000 0.000000 0
0.240000 0.000000 0
0.260000 0.000000 0
0.280000 0.000000 0
0.300000 0.000000 0
0.320000 0.000000 0
0.340000 0.000000 0
0.360000 0.000000 0
0.380000 0.000000 0
0.400000 0.000000 0
0.420000 0.000000 0
0.440000 0.000000 0
0.460000 0.000000 0
0.480000 0.000000 0
0.500000 0.000000 0
0.520000 0.000000 0
0.540000 0.000000 0
0.560000 0.000000 0
0.580000 0.000000 0
0.600000 0.000000 0
0.620000 0.000000 0
0.640000 0.000000 0
0.660000 0.000000 0
0.680000 0.000000 0
0.700000 0.000000 0
0.720000 0.000000 0
0.740000 0.000000 0
0.760000 0.000000 0
0.780000 0.000000 0
0.800000 0.000000 0
0.820000 0.000000 0
0.840000 0.000000 0
0.860000 0.000000 0
0.880000 0.000000 0
0.900000 0.000000 0
0.920000 0.000000 0
0.940000 0.000000 0
0.960000 0.000000 0
0.980000 0.000000 0
1.000000 0.000000 0
0.000000 0.020000 0
0.020000 0.020000 0
0.040000 0.020000 0
0.060000 0.020000 0
0.080000 0.020000 0
0.100000 0.020000 0
0.120000 0.020000 0
0.140000 0.020000 0
0.160000 0.020000 0
0.180000 0.020000 0
0.200000 0.020000 0
0.220000 0.020000 0
0.240000 0.020000 0
0.260000 0.020000 0
0.280000 0.020000 0
0.300000 0.020000 0
0.320000 0.020000 0
0.340000 0.020000 0
0.360000 0.020000 0
0.380000 0.020000 0
0.400000 0.020000 0
0.420000 0.020000 0
0.440000 0.020000 0
0.460000 0.020000 0
0.480000 0.020000 0
0.500000 0.020000 0
0.520000 0.020000 0
0.540000 0.020000 0
0.560000 0.020000 0
0.580000 0.020000 0
0.600000 0.020000 0
0.620000 0.020000 0
0.640000 0.020000 0
0.660000 0.020000 0
0.680000 0.020000 0
0.700000 0.020000 0
0.720000 0.020000 0
0.740000 0.020000 0
0.760000 0.020000 0
0.780000 0.020000 0
0.800000 0.020000 0
0.820000 0.020000 0
0.840000 0.020000 0
0.860000 0.020000 0
0.880000 0.020000 0
0.900000 0.020000 0
0.920000 0.020000 0
0.940000 0.020000 0
0.960000 0.020000 0
0.980000 0.020000 0
1.000000 0.020000 0
0.000000 0.040000 0
0.020000 0.040000 0
0.040000 0.040000 0
0.060000 0.040000 0
0.080000 0.040000 0
0.100000 0.040000 0
0.120000 0.040000 0
0.140000 0.040000 0
0.160000 0.040000 0
0.180000 0.040000 0
0.200000 0.040000 0
0.220000 0.040000 0
0.240000 0.040000 0
0.260000 0.040000 0
0.280000 0.040000 0
0.300000 0.040000 0
0.320000 0.040000 0
0.340000 0.040000 0
0.360000 0.040000 0
0.380000 0.040000 0
0.400000 0.040000 0
0.420000 0.040000 0
0.440000 0.040000 0
0.460000 0.040000 0
0.480000 0.040000 0
0.500000 0.040000 0
0.520000 0.040000 0
0.540000 0.040000 0
0.560000 0.040000 0
0.580000 0.040000 0
0.600000 0.040000 0
0.620000 0.040000 0
0.640000 0.040000 0
0.660000 0.040000 0
0.680000 0.040000 0
0.700000 0.040000 0
0.720000 0.040000 0
0.740000 0.040000 0
0.760000 0.040000 0
0.780000 0.040000 0
0.800000 0.040000 0
0.820000 0.040000 0
0.840000 0.040000 0
0.860000 0.040000 0
0.880000 0.040000 0
0.900000 0.040000 0
0.920000 0.040000 0
0.940000 0.040000 0
0.960000 0.040000 0
0.980000 0.040000 0
1.000000 0.040000 0
0.000000 0.060000 0
0.020000 0.060000 0
0.040000 0.060000 0
0.060000 0.060000 0
0.080000 0.060000 0
0.100000 0.060000 0
0.120000 0.060000 0
0.140000 0.060000 0
0.160000 0.060000 0
0.180000 0.060000 0
0.200000 0.060000 0
0.220000 0.060000 0
0.240000 0.060000 0
0.260000 0.060000 0
0.280000 0.060000 0
0.300000 0.060000 0
0.320000 0.060000 0
0.340000 0.060000 0
0.360000 0.060000 0
0.380000 0.060000 0
0.400000 0.060000 0
0.420000 0.060000 0
0.440000 0.060000 0
0.460000 0.060000 0
0.480000 0.060000 0
0.500000 0.060000 0
0.520000 0.060000 0
0.540000 0.060000 0
0.560000 0.060000 0
0.580000 0.060000 0
0.600000 0.060000 0
0.620000 0.060000 0
0.640000 0.060000 0
0.660000 0.060000 0
0.680000 0.060000 0
0.700000 0.060000 0
0.720000 0.060000 0
0.740000 0.060000 0
0.760000 0.060000 0
0.780000 0.060000 0
0.800000 0.060000 0
0.820000 0.060000 0
0.840000 0.060000 0
0.860000 0.060000 0
0.880000 0.060000 0
0.900000 0.060000 0
0.920000 0.060000 0
0.940000 0.060000 0
0.960000 0.060000 0
0.980000 0.060000 0
1.000000 0.060000 0
0.000000 0.080000 0
0.020000 0.080000 0
0.040000 0.080000 0
0.060000 0.080000 0
0.080000 0.080000 0
0.100000 0.080000 0
0.120000 0.080000 0
0.140000 0.080000 0
0.160000 0.080000 0
0.180000 0.080000 0
0.200000 0.080000 0
0.220000 0.080000 0
0.240000 0.080000 0
0.260000 0.080000 0
0.280000 0.080000 0
0.300000 0.080000 0
0.320000 0.080000 0
0.340000 0.080000 0
0.360000 0.080000 0
0.380000 0.080000 0
0.400000 0.080000 0
0.420000 0.080000 0
0.440000 0.080000 0
0.460000 0.080000 0
0.480000 0.080000 0
0.500000 0.080000 0
0.520000 0.080000 0
0.540000 0.080000 0
0.560000 0.080000 0
0.580000 0.080000 0
0.600000 0.080000 0
0.620000 0.080000 0
0.640000 0.080000 0
0.660000 0.080000 0
0.680000 0.080000 0
0.700000 0.080000 0
0.720000 0.080000 0
0.740000 0.080000 0
0.760000 0.080000 0
0.780000 0.080000 0
0.800000 0.080000 0
0.820000 0.080000 0
0.840000 0.080000 0
0.860000 0.080000 0
0.880000 0.080000 0
0.900000 0.080000 0
0.920000 0.080000 0
0.940000 0.080000 0
0.960000 0.080000 0
0.980000 0.080000 0
1.000000 0.080000 0
0.000000 0.100000 0
0.020000 0.100000 0
0.040000 0.100000 0
0.060000 0.100000 0
0.080000 0.100000 0
0.100000 0.100000 0
0.120000 0.100000 0
0.140000 0.100000 0
0.160000 0.100000 0
0.180000 0.100000 0
0.200000 0.100000 0
0.220000 0.100000 0
0.240000 0.100000 0
0.260000 0.100000 0
0.280000 0.100000 0
0.300000 0.100000 0
0.320000 0.100000 0
0.340000 0.100000 0
0.360000 0.100000 0
0.380000 0.100000 0
0.400000 0.100000 0
0.420000 0.100000 0
0.440000 0.100000 0
0.460000 0.100000 0
0.480000 0.100000 0
0.500000 0.100000 0
0.520000 0.100000 0
0.540000 0.100000 0
0.560000 0.100000 0
0.580000 0.100000 0
0.600000 0.100000 0
0.620000 0.100000 0
0.640000 0.100000 0
0.660000 0.100000 0
0.680000 0.100000 0
0.700000 0.100000 0
0.720000 0.100000 0
0.740000 0.100000 0
0.760000 0.100000 0
0.780000 0.100000 0
0.800000 0.100000 0
0.820000 0.100000 0
0.840000 0.100000 0
0.860000 0.100000 0
0.880000 0.100000 0
0.900000 0.100000 0
0.920000 0.100000 0
0.940000 0.100000 0
0.960000 0.100000 0
0.980000 0.100000 0
1.000000 0.100000 0
0.000000 0.120000 0
0.020000 0.120000 0
0.040000 0.120000 0
0.060000 0.120000 0
0.080000 0.120000 0
0.100000 0.120000 0
0.120000 0.120000 0
0.140000 0.120000 0
0.160000 0.120000 0
0.180000 0.120000 0
0.200000 0.120000 0
0.220000 0.120000 0
0.240000 0.120000 0
0.260000 0.120000 0
0.280000 0.120000 0
0.300000 0.120000 0
0.320000 0.120000 0
0.340000 0.120000 0
0.360000 0.120000 0
0.380000 0.120000 0
0.400000 0.120000 0
0.420000 0.120000 0
0.440000 0.120000 0
0.460000 0.120000 0
0.480000 0.120000 0
0.500000 0.120000 0
0.520000 0.120000 0
0.540000 0.120000 0
0.560000 0.120000 0
0.580000 0.120000 0
0.600000 0.120000 0
0.620000 0.120000 0
0.640000 0.120000 0
0.660000 0.120000 0
0.680000 0.120000 0
0.700000 0.120000 0
0.720000 0.120000 0
0.740000 0.120000 0
0.760000 0.120000 0
0.780000 0.120000 0
0.800000 0.120000 0
0.820000 0.120000 0
0.840000 0.120000 0
0.860000 0.120000 0
0.880000 0.120000 0
0.900000 0.120000 0
0.920000 0.120000 0
0.940000 0.120000 0
0.960000 0.120000 0
0.980000 0.120000 0
1.000000 0.120000 0
0.000000 0.140000 0
0.020000 0.140000 0
0.040000 0.140000 0
0.060000 0.140000 0
0.080000 0.140000 0
0.100000 0.140000 0
0.120000 0.140000 0
0.140000 0.140000 0
0.160000 0.140000 0
0.180000 0.140000 0
0.200000 0.140000 0
0.220000 0.140000 0
0.240000 0.140000 0
0.260000 0.140000 0
0.280000 0.140000 0
0.300000 0.140000 0
0.320000 0.140000 0
0.340000 0.140000 0
0.360000 0.140000 0
0.380000 0.140000 0
0.400000 0.140000 0
0.420000 0.140000 0
0.440000 0.140000 0
0.460000 0.140000 0
0.480000 0.140000 0
0.500000 0.140000 0
0.520000 0.140000 0
0.540000 0.140000 0
0.560000 0.140000 0
0.580000 0.140000 0
0.600000 0.140000 0
0.620000 0.140000 0
0.640000 0.140000 0
0.660000 0.140000 0
0.680000 0.140000 0
0.700000 0.140000 0
0.720000 0.140000 0
0.740000 0.140000 0
0.760000 0.140000 0
0.780000 0.140000 0
0.800000 0.140000 0
0.820000 0.140000 0
0.840000 0.140000 0
0.860000 0.140000 0
0.880000 0.140000 0
0.900000 0.140000 0
0.920000 0.140000 0
0.940000 0.140000 0
0.960000 0.140000 0
0.980000 0.140000 0
1.000000 0.140000 0
0.000000 0.160000 0
0.020000 0.160000 0
0.040000 0.160000 0
0.060000 0.160000 0
0.080000 0.160000 0
0.100000 0.160000 0
0.120000 0.160000 0
0.140000 0.160000 0
0.160000 0.160000 0
0.180000 0.160000 0
0.200000 0.160000 0
0.220000 0.160000 0
0.240000 0.160000 0
0.260000 0.160000 0
0.280000 0.160000 0
0.300000 0.160000 0
0.320000 0.160000 0
0.340000 0.160000 0
0.360000 0.160000 0
0.380000 0.160000 0
0.400000 0.160000 0
0.420000 0.160000 0
0.440000 0.160000 0
0.460000 0.160000 0
0.480000 0.160000 0
0.500000 0.160000 0
0.520000 0.160000 0
0.540000 0.160000 0
0.560000 0.160000 0
0.580000 0.160000 0
0.600000 0.160000 0
0.620000 0.160000 0
0.640000 0.160000 0
0.660000 0.160000 0
0.680000 0.160000 0
0.700000 0.160000 0
0.720000 0.160000 0
0.740000 0.160000 0
0.760000 0.160000 0
0.780000 0.160000 0
0.800000 0.160000 0
0.820000 0.160000 0
0.840000 0.160000 0
0.860000 0.160000 0
0.880000 0.160000 0
0.900000 0.160000 0
0.920000 0.160000 0
0.940000 0.160000 0
0.960000 0.160000 0
0.980000 0.160000 0
1.000000 0.160000 0
0.000000 0.180000 0
0.020000 0.180000 0
0.040000 0.180000 0
0.060000 0.180000 0
0.080000 0.180000 0
0.100000 0.180000 0
0.120000 0.180000 0
0.140000 0.180000 0
0.160000 0.180000 0
0.180000 0.180000 0
0.200000 0.180000 0
0.220000 0.180000 0
0.240000 0.180000 0
0.260000 0.180000 0
0.280000 0.180000 0
0.300000 0.180000 0
0.320000 0.180000 0
0.340000 0.180000 0
0.360000 0.180000 0
0.380000 0.180000 0
0.400000 0.180000 0
0.420000 0.180000 0
0.440000 0.180000 0
0.460000 0.180000 0
0.480000 0.180000 0
0.500000 0.180000 0
0.520000 0.180000 0
0.540000 0.180000 0
0.560000 0.180000 0
0.580000 0.180000 0
0.600000 0.180000 0
0.620000 0.180000 0
[...]
POINT_DATA 2601 

VECTORS velocity float
0.000000 0.000000 0
-0.000000 0.000000 0
-0.000001 0.000000 0
-0.000001 0.000000 0
-0.000000 0.000000 0
0.000000 0.000000 0
0.000000 0.000000 0
0.000000 0.000000 0
-0.000000 0.000000 0
-0.000000 0.000000 0
-0.000000 0.000000 0
0.000000 0.000000 0
0.000000 0.000000 0
0.000000 0.000000 0
0.000000 0.000000 0
-0.000000 0.000000 0
-0.000000 0.000000 0
-0.000000 0.000000 0
0.000000 0.000000 0
0.000000 0.000000 0
0.000000 0.000000 0
-0.000000 0.000000 0
-0.000000 0.000000 0
-0.000000 0.000000 0
0.000000 0.000000 0
0.000000 0.000000 0
0.000000 0.000000 0
-0.000000 0.000000 0
-0.000000 0.000000 0
-0.000000 0.000000 0
-0.000000 0.000000 0
-0.000000 0.000000 0
-0.000000 0.000000 0
0.000000 0.000000 0
0.000000 0.000000 0
0.000000 0.000000 0
0.000000 0.000000 0
0.000000 0.000000 0
-0.000000 0.000000 0
-0.000000 0.000000 0
-0.000000 0.000000 0
-0.000000 0.000000 0
0.000000 0.000000 0
0.000000 0.000000 0
0.000000 0.000000 0
0.000000 0.000000 0
0.000000 0.000000 0
-0.000000 0.000000 0
-0.000000 0.000000 0
-0.000000 0.000000 0
0.000000 0.000000 0
0.000000 -0.000000 0
-0.000007 0.000010 0
-0.000357 0.000247 0
-0.001135 0.000513 0
-0.002303 0.000733 0
-0.003769 0.000882 0
-0.005416 0.000953 0
-0.007117 0.000948 0
-0.008755 0.000876 0
-0.010225 0.000748 0
-0.011444 0.000578 0
-0.012353 0.000383 0
-0.012917 0.000177 0
-0.013123 -0.000030 0
-0.012976 -0.000227 0
-0.012497 -0.000406 0
-0.011716 -0.000562 0
-0.010674 -0.000692 0
-0.009415 -0.000794 0
-0.007988 -0.000867 0
-0.006441 -0.000912 0
-0.004822 -0.000931 0
-0.003175 -0.000925 0
-0.001544 -0.000897 0
0.000036 -0.000849 0
0.001530 -0.000786 0
0.002910 -0.000710 0
0.004157 -0.000624 0
0.005253 -0.000533 0
0.006187 -0.000438 0
0.006955 -0.000342 0
0.007554 -0.000247 0
0.007985 -0.000154 0
0.008254 -0.000066 0
0.008367 0.000017 0
0.008333 0.000095 0
0.008163 0.000167 0
0.007866 0.000232 0
0.007453 0.000292 0
0.006935 0.000346 0
0.006324 0.000393 0
0.005632 0.000434 0
0.004873 0.000466 0
0.004065 0.000488 0
0.003230 0.000494 0
0.002400 0.000479 0
0.001614 0.000435 0
0.000923 0.000352 0
0.000390 0.000226 0
0.000074 0.000074 0
0.000000 -0.000000 0
0.000000 -0.000001 0
-0.000230 0.000356 0
-0.001098 0.001128 0
-0.002649 0.001946 0
-0.004814 0.002635 0
-0.007454 0.003113 0
-0.010386 0.003348 0
-0.013411 0.003340 0
-0.016337 0.003108 0
-0.018991 0.002689 0
-0.021232 0.002128 0
-0.022957 0.001473 0
-0.024099 0.000770 0
-0.024630 0.000059 0
-0.024552 -0.000626 0
-0.023890 -0.001260 0
-0.022692 -0.001823 0
-0.021020 -0.002300 0
-0.018944 -0.002685 0
-0.016545 -0.002974 0
-0.013903 -0.003167 0
-0.011101 -0.003266 0
-0.008216 -0.003278 0
-0.005324 -0.003211 0
-0.002492 -0.003073 0
0.000220 -0.002875 0
0.002758 -0.002627 0
0.005081 -0.002342 0
0.007154 -0.002031 0
0.008955 -0.001702 0
0.010470 -0.001366 0
0.011690 -0.001030 0
0.012616 -0.000700 0
0.013252 -0.000382 0
0.013608 -0.000080 0
0.013697 0.000204 0
0.013537 0.000468 0
0.013144 0.000710 0
0.012538 0.000930 0
0.011738 0.001129 0
0.010766 0.001303 0
0.009645 0.001451 0
0.008401 0.001567 0
0.007067 0.001643 0
0.005682 0.001665 0
0.004297 0.001617 0
0.002976 0.001476 0
0.001798 0.001223 0
0.000852 0.000849 0
0.000228 0.000390 0
0.000000 -0.000000 0
0.000000 -0.000001 0
-0.000477 0.001108 0
-0.001882 0.002667 0
-0.004169 0.004229 0
-0.007221 0.005538 0
-0.010858 0.006453 0
-0.014859 0.006910 0
-0.018980 0.006899 0
-0.022983 0.006456 0
-0.026650 0.005643 0
-0.029802 0.004544 0
-0.032302 0.003250 0
-0.034060 0.001850 0
-0.035030 0.000423 0
-0.035205 -0.000967 0
-0.034610 -0.002265 0
-0.033297 -0.003433 0
-0.031336 -0.004440 0
-0.028813 -0.005268 0
-0.025824 -0.005908 0
-0.022471 -0.006357 0
-0.018857 -0.006618 0
-0.015084 -0.006702 0
-0.011252 -0.006621 0
-0.007451 -0.006393 0
-0.003764 -0.006036 0
-0.000263 -0.005571 0
0.002989 -0.005020 0
0.005939 -0.004408 0
0.008551 -0.003754 0
0.010797 -0.003076 0
0.012664 -0.002392 0
0.014145 -0.001716 0
0.015241 -0.001058 0
0.015962 -0.000428 0
0.016322 0.000166 0
0.016340 0.000720 0
0.016038 0.001231 0
0.015441 0.001698 0
0.014576 0.002117 0
0.013471 0.002486 0
0.012158 0.002799 0
0.010671 0.003045 0
0.009053 0.003207 0
0.007356 0.003264 0
0.005640 0.003184 0
0.003983 0.002933 0
0.002477 0.002476 0
0.001228 0.001796 0
0.000356 0.000926 0
0.000000 -0.000000 0
0.000000 -0.000000 0
-0.000690 0.002239 0
-0.002585 0.004821 0
-0.005540 0.007285 0
-0.009383 0.009324 0
-0.013897 0.010751 0
-0.018828 0.011469 0
-0.023904 0.011463 0
-0.028857 0.010778 0
-0.033441 0.009509 0
-0.037450 0.007780 0
-0.040724 0.005731 0
-0.043151 0.003497 0
-0.044671 0.001204 0
-0.045266 -0.001046 0
-0.044954 -0.003168 0
-0.043785 -0.005097 0
-0.041828 -0.006785 0
-0.039174 -0.008197 0
-0.035925 -0.009316 0
-0.032191 -0.010134 0
-0.028090 -0.010652 0
-0.023737 -0.010883 0
-0.019246 -0.010845 0
-0.014727 -0.010562 0
-0.010279 -0.010063 0
-0.005993 -0.009379 0
-0.001948 -0.008544 0
0.001790 -0.007593 0
0.005164 -0.006561 0
0.008135 -0.005480 0
0.010676 -0.004377 0
0.012772 -0.003277 0
0.014419 -0.002199 0
0.015622 -0.001161 0
0.016393 -0.000174 0
0.016749 0.000752 0
0.016714 0.001609 0
0.016316 0.002393 0
0.015586 0.003099 0
0.014557 0.003722 0
0.013266 0.004251 0
0.011755 0.004671 0
0.010069 0.004958 0
0.008267 0.005078 0
0.006414 0.004989 0
0.004595 0.004640 0
0.002907 0.003979 0
0.001473 0.002970 0
0.000439 0.001618 0
0.000000 0.000000 0
0.000000 0.000000 0
-0.000861 0.003694 0
-0.003173 0.007517 0
-0.006713 0.011027 0
-0.011256 0.013894 0
-0.016548 0.015898 0
-0.022309 0.016917 0
-0.028246 0.016929 0
-0.034071 0.015993 0
-0.039519 0.014236 0
-0.044365 0.011826 0
-0.048432 0.008951 0
-0.051594 0.005798 0
-0.053774 0.002537 0
-0.054941 -0.000683 0
-0.055107 -0.003746 0
-0.054309 -0.006559 0
-0.052614 -0.009051 0
-0.050105 -0.011172 0
-0.046886 -0.012890 0
-0.043065 -0.014191 0
-0.038764 -0.015073 0
-0.034105 -0.015545 0
-0.029210 -0.015631 0
-0.024199 -0.015360 0
-0.019187 -0.014770 0
-0.014277 -0.013902 0
-0.009564 -0.012803 0
-0.005129 -0.011520 0
-0.001040 -0.010099 0
0.002645 -0.008588 0
0.005887 -0.007029 0
0.008657 -0.005459 0
0.010942 -0.003908 0
0.012739 -0.002402 0
0.014053 -0.000961 0
0.014901 0.000399 0
0.015301 0.001664 0
0.015282 0.002826 0
0.014877 0.003876 0
0.014120 0.004806 0
0.013051 0.005602 0
0.011714 0.006242 0
0.010157 0.006695 0
0.008440 0.006919 0
0.006629 0.006856 0
0.004809 0.006440 0
0.003084 0.005598 0
0.001583 0.004265 0
0.000478 0.002398 0
0.000000 0.000000 0
0.000000 0.000000 0
-0.000995 0.005413 0
-0.003650 0.010673 0
-0.007689 0.015367 0
-0.012841 0.019158 0
-0.018821 0.021804 0
-0.025330 0.023168 0
-0.032055 0.023225 0
-0.038696 0.022051 0
-0.044976 0.019803 0
-0.050656 0.016693 0
-0.055547 0.012959 0
-0.059510 0.008839 0
-0.062455 0.004551 0
-0.064337 0.000287 0
-0.065152 -0.003801 0
-0.064930 -0.007590 0
-0.063724 -0.010988 0
-0.061609 -0.013925 0
-0.058677 -0.016356 0
-0.055033 -0.018255 0
-0.050792 -0.019613 0
-0.046077 -0.020437 0
-0.041012 -0.020750 0
-0.035722 -0.020585 0
-0.030330 -0.019985 0
-0.024950 -0.019002 0
-0.019689 -0.017692 0
-0.014644 -0.016116 0
-0.009896 -0.014335 0
-0.005514 -0.012407 0
-0.001556 -0.010389 0
0.001938 -0.008332 0
0.004940 -0.006281 0
0.007435 -0.004272 0
0.009420 -0.002336 0
0.010903 -0.000496 0
0.011901 0.001227 0
0.012433 0.002817 0
0.012532 0.004262 0
0.012232 0.005548 0
0.011573 0.006658 0
0.010598 0.007565 0
0.009356 0.008232 0
0.007902 0.008607 0
0.006302 0.008619 0
0.004640 0.008185 0
0.003017 0.007204 0
0.001569 0.005576 0
0.000480 0.003201 0
0.000000 0.000000 0
0.000000 0.000000 0
-0.001097 0.007344 0
-0.004029 0.014210 0
-0.008483 0.020216 0
-0.014156 0.025027 0
-0.020741 0.028387 0
-0.027918 0.030151 0
-0.035367 0.030295 0
-0.042776 0.028914 0
-0.049861 0.026196 0
-0.056375 0.022398 0
-0.062120 0.017805 0
-0.066945 0.012705 0
-0.070748 0.007364 0
-0.073470 0.002014 0
-0.075090 -0.003153 0
-0.075624 -0.007988 0
-0.075111 -0.012372 0
-0.073610 -0.016219 0
-0.071199 -0.019466 0
-0.067971 -0.022075 0
-0.064031 -0.024028 0
-0.059493 -0.025326 0
-0.054479 -0.025986 0
-0.049112 -0.026042 0
-0.043520 -0.025542 0
-0.037823 -0.024542 0
-0.032138 -0.023109 0
-0.026573 -0.021313 0
-0.021224 -0.019228 0
-0.016175 -0.016928 0
-0.011498 -0.014481 0
-0.007248 -0.011955 0
-0.003466 -0.009405 0
-0.000182 -0.006882 0
0.002588 -0.004429 0
0.004843 -0.002082 0
0.006588 0.000134 0
0.007837 0.002194 0
0.008613 0.004077 0
0.008948 0.005764 0
0.008880 0.007235 0
0.008447 0.008459 0
0.007696 0.009392 0
0.006679 0.009972 0
0.005455 0.010118 0
0.004103 0.009726 0
0.002720 0.008669 0
0.001440 0.006802 0
0.000448 0.003968 0
0.000000 -0.000000 0
0.000000 0.000000 0
-0.001174 0.009442 0
-0.004324 0.018057 0
-0.009114 0.025493 0
-0.015224 0.031416 0
-0.022330 0.035567 0
-0.030101 0.037795 0
-0.038207 0.038083 0
-0.046335 0.036545 0
-0.054195 0.033402 0
-0.061536 0.028953 0
-0.068154 0.023529 0
-0.073889 0.017466 0
-0.078627 0.011076 0
-0.082293 0.004629 0
-0.084853 -0.001646 0
-0.086301 -0.007570 0
-0.086660 -0.013002 0
-0.085970 -0.017837 0
-0.084291 -0.021995 0
-0.081698 -0.025423 0
-0.078280 -0.028091 0
-0.074139 -0.029990 0
-0.069386 -0.031131 0
-0.064141 -0.031544 0
-0.058528 -0.031275 0
-0.052670 -0.030384 0
-0.046691 -0.028942 0
-0.040708 -0.027030 0
-0.034830 -0.024732 0
-0.029155 -0.022133 0
-0.023769 -0.019317 0
-0.018745 -0.016364 0
-0.014139 -0.013346 0
-0.009996 -0.010326 0
-0.006344 -0.007361 0
-0.003201 -0.004496 0
-0.000572 -0.001767 0
0.001547 0.000792 0
0.003167 0.003150 0
0.004309 0.005280 0
0.005006 0.007158 0
0.005291 0.008748 0
0.005204 0.010001 0
0.004791 0.010848 0
0.004105 0.011195 0
0.003213 0.010920 0
0.002204 0.009867 0
0.001204 0.007847 0
0.000386 0.004642 0
0.000000 -0.000000 0
0.000000 -0.000000 0
-0.001230 0.011668 0
-0.004545 0.022150 0
-0.009602 0.031117 0
-0.016068 0.038243 0
-0.023612 0.043263 0
-0.031897 0.046028 0
-0.040593 0.046530 0
-0.049382 0.044901 0
-0.057978 0.041398 0
-0.066127 0.036358 0
-0.073622 0.030158 0
-0.080295 0.023177 0
-0.086023 0.015768 0
-0.090718 0.008240 0
-0.094325 0.000855 0
-0.096820 -0.006180 0
-0.098203 -0.012704 0
-0.098495 -0.018588 0
-0.097735 -0.023739 0
-0.095975 -0.028087 0
-0.093284 -0.031587 0
-0.089747 -0.034219 0
-0.085461 -0.035983 0
-0.080532 -0.036901 0
-0.075079 -0.037013 0
-0.069225 -0.036379 0
-0.063093 -0.035071 0
-0.056808 -0.033174 0
-0.050488 -0.030781 0
-0.044246 -0.027988 0
-0.038182 -0.024892 0
-0.032384 -0.021585 0
-0.026927 -0.018154 0
-0.021871 -0.014677 0
-0.017263 -0.011224 0
-0.013135 -0.007853 0
-0.009505 -0.004613 0
-0.006382 -0.001544 0
-0.003767 0.001314 0
-0.001653 0.003925 0
-0.000023 0.006254 0
0.001150 0.008261 0
0.001898 0.009891 0
0.002255 0.011071 0
0.002265 0.011697 0
0.001981 0.011627 0
0.001479 0.010678 0
0.000865 0.008620 0
0.000296 0.005171 0
0.000000 0.000000 0
0.000000 -0.000000 0
-0.001268 0.013987 0
-0.004703 0.026429 0
-0.009961 0.037016 0
-0.016707 0.045427 0
-0.024608 0.051396 0
-0.033327 0.054776 0
-0.042536 0.055568 0
-0.051922 0.053930 0
-0.061201 0.050147 0
-0.070123 0.044597 0
-0.078478 0.037697 0
-0.086096 0.029868 0
-0.092843 0.021499 0
-0.098620 0.012931 0
-0.103354 0.004456 0
-0.106998 -0.003692 0
-0.109531 -0.011327 0
-0.110951 -0.018305 0
-0.111271 -0.024516 0
-0.110522 -0.029873 0
-0.108747 -0.034318 0
-0.106009 -0.037813 0
-0.102384 -0.040346 0
-0.097965 -0.041925 0
-0.092857 -0.042583 0
-0.087176 -0.042370 0
-0.081044 -0.041359 0
-0.074589 -0.039635 0
-0.067935 -0.037293 0
-0.061205 -0.034440 0
-0.054515 -0.031180 0
-0.047967 -0.027619 0
-0.041655 -0.023858 0
-0.035657 -0.019990 0
-0.030036 -0.016098 0
-0.024844 -0.012254 0
-0.020116 -0.008519 0
-0.015875 -0.004946 0
-0.012135 -0.001580 0
-0.008903 0.001537 0
-0.006179 0.004355 0
-0.003953 0.006828 0
-0.002207 0.008896 0
-0.000917 0.010481 0
-0.000056 0.011470 0
0.000414 0.011706 0
0.000547 0.010983 0
0.000426 0.009030 0
0.000178 0.005506 0
0.000000 -0.000000 0
0.000000 -0.000000 0
-0.001291 0.016371 0
-0.004805 0.030842 0
-0.010205 0.043122 0
-0.017159 0.052890 0
-0.025336 0.059883 0
-0.034407 0.063957 0
-0.044050 0.065125 0
-0.053959 0.063566 0
-0.063856 0.059598 0
-0.073497 0.053634 0
-0.082674 0.046130 0
-0.091216 0.037543 0
-0.098983 0.028293 0
-0.105865 0.018752 0
-0.111773 0.009232 0
-0.116640 -0.000004 0
-0.120418 -0.008750 0
-0.123079 -0.016848 0
-0.124615 -0.024168 0
-0.125028 -0.030611 0
-0.124336 -0.036100 0
-0.122576 -0.040582 0
-0.119800 -0.044027 0
-0.116080 -0.046428 0
-0.111503 -0.047802 0
-0.106173 -0.048192 0
-0.100206 -0.047658 0
-0.093727 -0.046284 0
-0.086865 -0.044165 0
-0.079750 -0.041409 0
-0.072509 -0.038130 0
-0.065260 -0.034444 0
-0.058114 -0.030464 0
-0.051167 -0.026296 0
-0.044504 -0.022037 0
-0.038192 -0.017774 0
-0.032289 -0.013582 0
-0.026834 -0.009525 0
-0.021860 -0.005658 0
-0.017385 -0.002031 0
-0.013426 0.001305 0
-0.009994 0.004289 0
-0.007092 0.006855 0
-0.004714 0.008920 0
-0.002850 0.010365 0
-0.001483 0.011023 0
-0.000588 0.010666 0
-0.000113 0.008989 0
0.000032 0.005597 0
0.000000 -0.000000 0
0.000000 0.000000 0
-0.001301 0.018793 0
-0.004859 0.035343 0
-0.010346 0.049370 0
-0.017439 0.060558 0
-0.025816 0.068644 0
-0.035156 0.073489 0
-0.045147 0.075119 0
-0.055496 0.073736 0
-0.065933 0.069685 0
-0.076223 0.063415 0
-0.086163 0.055416 0
-0.095583 0.046177 0
-0.104341 0.036148 0
-0.112318 0.025721 0
-0.119413 0.015231 0
-0.125539 0.004952 0
-0.130621 -0.004888 0
-0.134609 -0.014108 0
-0.137465 -0.022567 0
-0.139166 -0.030152 0
-0.139702 -0.036770 0
-0.139080 -0.042350 0
-0.137326 -0.046843 0
-0.134485 -0.050223 0
-0.130624 -0.052489 0
-0.125828 -0.053667 0
-0.120201 -0.053805 0
-0.113860 -0.052976 0
-0.106934 -0.051270 0
-0.099557 -0.048796 0
-0.091864 -0.045670 0
-0.083989 -0.042014 0
-0.076056 -0.037951 0
-0.068182 -0.033600 0
-0.060469 -0.029073 0
-0.053009 -0.024469 0
-0.045876 -0.019877 0
-0.039134 -0.015375 0
-0.032834 -0.011029 0
-0.027013 -0.006897 0
-0.021704 -0.003037 0
-0.016934 0.000494 0
-0.012730 0.003617 0
-0.009116 0.006238 0
-0.006104 0.008239 0
-0.003705 0.009445 0
-0.001924 0.009613 0
-0.000751 0.008410 0
-0.000142 0.005393 0
0.000000 -0.000000 0
0.000000 0.000000 0
-0.001300 0.021230 0
-0.004870 0.039887 0
-0.010396 0.055702 0
-0.017565 0.068360 0
-0.026066 0.077600 0
-0.035593 0.083288 0
-0.045846 0.085465 0
-0.056545 0.084352 0
-0.067434 0.080326 0
-0.078287 0.073864 0
-0.088911 0.065491 0
-0.099139 0.055721 0
-0.108829 0.045028 0
-0.117858 0.033823 0
-0.126115 0.022453 0
-0.133497 0.011205 0
-0.139912 0.000320 0
-0.145276 -0.010004 0
-0.149523 -0.019612 0
-0.152606 -0.028375 0
-0.154486 -0.036186 0
-0.155140 -0.042958 0
-0.154563 -0.048622 0
-0.152771 -0.053130 0
-0.149804 -0.056460 0
-0.145725 -0.058615 0
-0.140618 -0.059626 0
-0.134588 -0.059550 0
-0.127759 -0.058468 0
-0.120263 -0.056478 0
-0.112242 -0.053698 0
-0.103838 -0.050253 0
-0.095192 -0.046271 0
-0.086437 -0.041883 0
-0.077697 -0.037210 0
-0.069084 -0.032367 0
-0.060695 -0.027456 0
-0.052616 -0.022567 0
-0.044920 -0.017779 0
-0.037667 -0.013161 0
-0.030912 -0.008775 0
-0.024700 -0.004685 0
-0.019077 -0.000963 0
-0.014094 0.002293 0
-0.009798 0.004954 0
-0.006238 0.006844 0
-0.003456 0.007713 0
-0.001487 0.007207 0
-0.000345 0.004846 0
0.000000 -0.000000 0
0.000000 0.000000 0
-0.001289 0.023663 0
-0.004844 0.044438 0
-0.010364 0.062064 0
-0.017551 0.076229 0
-0.026108 0.086672 0
-0.035741 0.093269 0
-0.046168 0.096071 0
-0.057123 0.095323 0
-0.068367 0.091428 0
-0.079686 0.084892 0
-0.090896 0.076268 0
-0.101839 0.066096 0
-0.112376 0.054867 0
-0.122383 0.043007 0
-0.131743 0.030870 0
-0.140343 0.018750 0
-0.148074 0.006891 0
-0.154825 -0.004497 0
-0.160501 -0.015237 0
-0.165027 -0.025189 0
-0.168336 -0.034236 0
-0.170375 -0.042273 0
-0.171107 -0.049211 0
-0.170517 -0.054981 0
-0.168613 -0.059536 0
-0.165428 -0.062853 0
-0.161024 -0.064941 0
-0.155487 -0.065835 0
-0.148927 -0.065596 0
-0.141473 -0.064313 0
-0.133266 -0.062095 0
-0.124456 -0.059063 0
-0.115195 -0.055352 0
-0.105633 -0.051095 0
-0.095914 -0.046426 0
-0.086171 -0.041471 0
-0.076525 -0.036345 0
-0.067086 -0.031150 0
-0.057950 -0.025977 0
-0.049202 -0.020905 0
-0.040921 -0.016004 0
-0.033179 -0.011341 0
-0.026045 -0.006990 0
-0.019592 -0.003040 0
-0.013903 0.000383 0
-0.009065 0.003102 0
-0.005172 0.004861 0
-0.002315 0.005299 0
-0.000575 0.003907 0
0.000000 -0.000000 0
0.000000 0.000000 0
-0.001271 0.026075 0
-0.004787 0.048962 0
-0.010263 0.068408 0
-0.017415 0.084103 0
-0.025961 0.095789 0
-0.035624 0.103348 0
-0.046138 0.106847 0
-0.057255 0.106552 0
-0.068752 0.102889 0
-0.080429 0.096394 0
-0.092116 0.087644 0
-0.103663 0.077201 0
-0.114938 0.065572 0
-0.125820 0.053190 0
-0.136190 0.040413 0
-0.145930 0.027535 0
-0.154917 0.014802 0
-0.163027 0.002424 0
-0.170135 -0.009410 0
-0.176128 -0.020540 0
-0.180916 -0.030838 0
-0.184418 -0.040187 0
-0.186564 -0.048479 0
-0.187305 -0.055624 0
-0.186614 -0.061549 0
-0.184492 -0.066204 0
-0.180970 -0.069567 0
-0.176110 -0.071647 0
-0.170003 -0.072482 0
-0.162765 -0.072140 0
-0.154533 -0.070716 0
-0.145459 -0.068324 0
-0.135706 -0.065094 0
-0.125436 -0.061163 0
-0.114812 -0.056672 0
-0.103989 -0.051756 0
-0.093112 -0.046541 0
-0.082315 -0.041143 0
-0.071722 -0.035663 0
-0.061443 -0.030189 0
-0.051584 -0.024798 0
-0.042244 -0.019561 0
-0.033522 -0.014550 0
-0.025520 -0.009849 0
-0.018354 -0.005573 0
-0.012150 -0.001887 0
-0.007056 0.000963 0
-0.003230 0.002610 0
-0.000831 0.002530 0
0.000000 -0.000000 0
0.000000 -0.000000 0
-0.001245 0.028450 0
-0.004703 0.053431 0
-0.010103 0.074692 0
-0.017174 0.091927 0
-0.025650 0.104881 0
-0.035271 0.113445 0
-0.045788 0.117702 0
-0.056972 0.117937 0
-0.068617 0.114601 0
-0.080539 0.108256 0
-0.092582 0.099501 0
-0.104608 0.088918 0
-0.116494 0.077024 0
-0.128123 0.064259 0
-0.139382 0.050980 0
-0.150151 0.037477 0
-0.160300 0.023988 0
-0.169694 0.010721 0
-0.178189 -0.002136 0
-0.185638 -0.014408 0
-0.191919 -0.025947 0
-0.196924 -0.036625 0
-0.200555 -0.046324 0
-0.202727 -0.054931 0
-0.203377 -0.062349 0
-0.202470 -0.068497 0
-0.200001 -0.073323 0
-0.196001 -0.076802 0
-0.190533 -0.078941 0
-0.183696 -0.079784 0
-0.175616 -0.079400 0
-0.166442 -0.077891 0
-0.156339 -0.075375 0
-0.145484 -0.071989 0
-0.134054 -0.067873 0
-0.122227 -0.063171 0
-0.110171 -0.058018 0
-0.098048 -0.052540 0
-0.086007 -0.046849 0
-0.074189 -0.041043 0
-0.062727 -0.035203 0
-0.051749 -0.029404 0
-0.041386 -0.023714 0
-0.031775 -0.018208 0
-0.023067 -0.012987 0
-0.015434 -0.008195 0
-0.009075 -0.004059 0
-0.004217 -0.000926 0
-0.001109 0.000677 0
0.000000 -0.000000 0
0.000000 -0.000000 0
-0.001215 0.030778 0
-0.004599 0.057820 0
-0.009893 0.080879 0
-0.016843 0.099650 0
-0.025197 0.113886 0
-0.034710 0.123486 0
-0.045152 0.128549 0
-0.056311 0.129380 0
-0.067999 0.126455 0
-0.080051 0.120359 0
-0.092324 0.111712 0
-0.104693 0.101112 0
-0.117048 0.089087 0
-0.129280 0.076079 0
-0.141282 0.062440 0
-0.152936 0.048453 0
-0.164116 0.034345 0
-0.174678 0.020313 0
-0.184468 0.006535 0
-0.193319 -0.006811 0
-0.201068 -0.019553 0
-0.207579 -0.031551 0
-0.212728 -0.042676 0
-0.216397 -0.052802 0
-0.218488 -0.061806 0
-0.218925 -0.069580 0
-0.217664 -0.076037 0
-0.214698 -0.081115 0
-0.210058 -0.084786 0
-0.203815 -0.087057 0
-0.196076 -0.087970 0
-0.186981 -0.087601 0
-0.176695 -0.086052 0
-0.165399 -0.083448 0
-0.153288 -0.079929 0
-0.140558 -0.075639 0
-0.127403 -0.070720 0
-0.114010 -0.065307 0
-0.100559 -0.059522 0
-0.087220 -0.053469 0
-0.074157 -0.047238 0
-0.061530 -0.040901 0
-0.049504 -0.034524 0
-0.038251 -0.028169 0
-0.027961 -0.021915 0
-0.018854 -0.015879 0
-0.011186 -0.010254 0
-0.005255 -0.005356 0
-0.001404 -0.001686 0
0.000000 -0.000000 0
0.000000 -0.000000 0
-0.001181 0.033049 0
-0.004478 0.062109 0
-0.009645 0.086937 0
-0.016441 0.107230 0
-0.024626 0.122748 0
-0.033972 0.133400 0
-0.044265 0.139304 0
-0.055312 0.140785 0
-0.066943 0.138341 0
-0.079009 0.132581 0
-0.091383 0.124144 0
-0.103956 0.113641 0
-0.116628 0.101611 0
-0.129302 0.088493 0
-0.141882 0.074637 0
-0.154257 0.060311 0
-0.166304 0.045730 0
-0.177881 0.031073 0
-0.188830 0.016505 0
-0.198977 0.002192 0
-0.208131 -0.011687 0