# vtk DataFile Version 2.0
generated by CFD-lab course output (written by Tobias Neckel) 
ASCII

DATASET STRUCTURED_GRID
DIMENSIONS  51 51 1 
POINTS 2601 float

0.000000 0.000000 0
0.020000 0.000000 0
0.040000 0.000000 0
0.060000 0.000000 0
0.080000 0.000000 0
0.100000 0.000000 0
0.120000 0.000000 0
0.140000 0.000000 0
0.160000 0.000000 0
0.180000 0.000000 0
0.200000 0.000000 0
0.220000 0.000000 0
0.240000 0.000000 0
0.260000 0.000000 0
0.280000 0.000000 0
0.300000 0.000000 0
0.320000 0.000000 0
0.340000 0.000000 0
0.360000 0.000000 0
0.380000 0.000000 0
0.400000 0.000000 0
0.420000 0.000000 0
0.440000 0.000000 0
0.460000 0.000000 0
0.480000 0.000000 0
0.500000 0.000000 0
0.520000 0.000000 0
0.540000 0.000000 0
0.560000 0.000000 0
0.580000 0.000000 0
0.600000 0.000000 0
0.620000 0.000000 0
0.640000 0.000000 0
0.660000 0.000000 0
0.680000 0.000000 0
0.700000 0.000000 0
0.720000 0.000000 0
0.740000 0.000000 0
0.760000 0.000000 0
0.780000 0.000000 0
0.800000 0.000000 0
0.820000 0.000000 0
0.840000 0.000000 0
0.860000 0.000000 0
0.880000 0.000000 0
0.900000 0.000000 0
0.920000 0.000000 0
0.940000 0.000000 0
0.960000 0.000000 0
0.980000 0.000000 0
1.000000 0.000000 0
0.000000 0.020000 0
0.020000 0.020000 0
0.040000 0.020000 0
0.060000 0.020000 0
0.080000 0.020000 0
0.100000 0.020000 0
0.120000 0.020000 0
0.140000 0.020000 0
0.160000 0.020000 0
0.180000 0.020000 0
0.200000 0.020000 0
0.220000 0.020000 0
0.240000 0.020000 0
0.260000 0.020000 0
0.280000 0.020000 0
0.300000 0.020000 0
0.320000 0.020000 0
0.340000 0.020000 0
0.360000 0.020000 0
0.380000 0.020000 0
0.400000 0.020000 0
0.420000 0.020000 0
0.440000 0.020000 0
0.460000 0.020000 0
0.480000 0.020000 0
0.500000 0.020000 0
0.520000 0.020000 0
0.540000 0.020000 0
0.560000 0.020000 0
0.580000 0.020000 0
0.600000 0.020000 0
0.620000 0.020000 0
0.640000 0.020000 0
0.660000 0.020000 0
0.680000 0.020000 0
0.700000 0.020000 0
0.720000 0.020000 0
0.740000 0.020000 0
0.760000 0.020000 0
0.780000 0.020000 0
0.800000 0.020000 0
0.820000 0.020000 0
0.840000 0.020000 0
0.860000 0.020000 0
0.880000 0.020000 0
0.900000 0.020000 0
0.920000 0.020000 0
0.940000 0.020000 0
0.960000 0.020000 0
0.980000 0.020000 0
1.000000 0.020000 0
0.000000 0.040000 0
0.020000 0.040000 0
0.040000 0.040000 0
0.060000 0.040000 0
0.080000 0.040000 0
0.100000 0.040000 0
0.120000 0.040000 0
0.140000 0.040000 0
0.160000 0.040000 0
0.180000 0.040000 0
0.200000 0.040000 0
0.220000 0.040000 0
0.240000 0.040000 0
0.260000 0.040000 0
0.280000 0.040000 0
0.300000 0.040000 0
0.320000 0.040000 0
0.340000 0.040000 0
0.360000 0.040000 0
0.380000 0.040000 0
0.400000 0.040000 0
0.420000 0.040000 0
0.440000 0.040000 0
0.460000 0.040000 0
0.480000 0.040000 0
0.500000 0.040000 0
0.520000 0.040000 0
0.540000 0.040000 0
0.560000 0.040000 0
0.580000 0.040000 0
0.600000 0.040000 0
0.620000 0.040000 0
0.640000 0.040000 0
0.660000 0.040000 0
0.680000 0.040000 0
0.700000 0.040000 0
0.720000 0.040000 0
0.740000 0.040000 0
0.760000 0.040000 0
0.780000 0.040000 0
0.800000 0.040000 0
0.820000 0.040000 0
0.840000 0.040000 0
0.860000 0.040000 0
0.880000 0.040000 0
0.900000 0.040000 0
0.920000 0.040000 0
0.940000 0.040000 0
0.960000 0.040000 0
0.980000 0.040000 0
1.000000 0.040000 0
0.000000 0.060000 0
0.020000 0.060000 0
0.040000 0.060000 0
0.060000 0.060000 0
0.080000 0.060000 0
0.100000 0.060000 0
0.120000 0.060000 0
0.140000 0.060000 0
0.160000 0.060000 0
0.180000 0.060000 0
0.200000 0.060000 0
0.220000 0.060000 0
0.240000 0.060000 0
0.260000 0.060000 0
0.280000 0.060000 0
0.300000 0.060000 0
0.320000 0.060000 0
0.340000 0.060000 0
0.360000 0.060000 0
0.380000 0.060000 0
0.400000 0.060000 0
0.420000 0.060000 0
0.440000 0.060000 0
0.460000 0.060000 0
0.480000 0.060000 0
0.500000 0.060000 0
0.520000 0.060000 0
0.540000 0.060000 0
0.560000 0.060000 0
0.580000 0.060000 0
0.600000 0.060000 0
0.620000 0.060000 0
0.640000 0.060000 0
0.660000 0.060000 0
0.680000 0.060000 0
0.700000 0.060000 0
0.720000 0.060000 0
0.740000 0.060000 0
0.760000 0.060000 0
0.780000 0.060000 0
0.800000 0.060000 0
0.820000 0.060000 0
0.840000 0.060000 0
0.860000 0.060000 0
0.880000 0.060000 0
0.900000 0.060000 0
0.920000 0.060000 0
0.940000 0.060000 0
0.960000 0.060000 0
0.980000 0.060000 0
1.000000 0.060000 0
0.000000 0.080000 0
0.020000 0.080000 0
0.040000 0.080000 0
0.060000 0.080000 0
0.080000 0.080000 0
0.100000 0.080000 0
0.120000 0.080000 0
0.140000 0.080000 0
0.160000 0.080000 0
0.180000 0.080000 0
0.200000 0.080000 0
0.220000 0.080000 0
0.240000 0.080000 0
0.260000 0.080000 0
0.280000 0.080000 0
0.300000 0.080000 0
0.320000 0.080000 0
0.340000 0.080000 0
0.360000 0.080000 0
0.380000 0.080000 0
0.400000 0.080000 0
0.420000 0.080000 0
0.440000 0.080000 0
0.460000 0.080000 0
0.480000 0.080000 0
0.500000 0.080000 0
0.520000 0.080000 0
0.540000 0.080000 0
0.560000 0.080000 0
0.580000 0.080000 0
0.600000 0.080000 0
0.620000 0.080000 0
0.640000 0.080000 0
0.660000 0.080000 0
0.680000 0.080000 0
0.700000 0.080000 0
0.720000 0.080000 0
0.740000 0.080000 0
0.760000 0.080000 0
0.780000 0.080000 0
0.800000 0.080000 0
0.820000 0.080000 0
0.840000 0.080000 0
0.860000 0.080000 0
0.880000 0.080000 0
0.900000 0.080000 0
0.920000 0.080000 0
0.940000 0.080000 0
0.960000 0.080000 0
0.980000 0.080000 0
1.000000 0.080000 0
0.000000 0.100000 0
0.020000 0.100000 0
0.040000 0.100000 0
0.060000 0.100000 0
0.080000 0.100000 0
0.100000 0.100000 0
0.120000 0.100000 0
0.140000 0.100000 0
0.160000 0.100000 0
0.180000 0.100000 0
0.200000 0.100000 0
0.220000 0.100000 0
0.240000 0.100000 0
0.260000 0.100000 0
0.280000 0.100000 0
0.300000 0.100000 0
0.320000 0.100000 0
0.340000 0.100000 0
0.360000 0.100000 0
0.380000 0.100000 0
0.400000 0.100000 0
0.420000 0.100000 0
0.440000 0.100000 0
0.460000 0.100000 0
0.480000 0.100000 0
0.500000 0.100000 0
0.520000 0.100000 0
0.540000 0.100000 0
0.560000 0.100000 0
0.580000 0.100000 0
0.600000 0.100000 0
0.620000 0.100000 0
0.640000 0.100000 0
0.660000 0.100000 0
0.680000 0.100000 0
0.700000 0.100000 0
0.720000 0.100000 0
0.740000 0.100000 0
0.760000 0.100000 0
0.780000 0.100000 0
0.800000 0.100000 0
0.820000 0.100000 0
0.840000 0.100000 0
0.860000 0.100000 0
0.880000 0.100000 0
0.900000 0.100000 0
0.920000 0.100000 0
0.940000 0.100000 0
0.960000 0.100000 0
0.980000 0.100000 0
1.000000 0.100000 0
0.000000 0.120000 0
0.020000 0.120000 0
0.040000 0.120000 0
0.060000 0.120000 0
0.080000 0.120000 0
0.100000 0.120000 0
0.120000 0.120000 0
0.140000 0.120000 0
0.160000 0.120000 0
0.180000 0.120000 0
0.200000 0.120000 0
0.220000 0.120000 0
0.240000 0.120000 0
0.260000 0.120000 0
0.280000 0.120000 0
0.300000 0.120000 0
0.320000 0.120000 0
0.340000 0.120000 0
0.360000 0.120000 0
0.380000 0.120000 0
0.400000 0.120000 0
0.420000 0.120000 0
0.440000 0.120000 0
0.460000 0.120000 0
0.480000 0.120000 0
0.500000 0.120000 0
0.520000 0.120000 0
0.540000 0.120000 0
0.560000 0.120000 0
0.580000 0.120000 0
0.600000 0.120000 0
0.620000 0.120000 0
0.640000 0.120000 0
0.660000 0.120000 0
0.680000 0.120000 0
0.700000 0.120000 0
0.720000 0.120000 0
0.740000 0.120000 0
0.760000 0.120000 0
0.780000 0.120000 0
0.800000 0.120000 0
0.820000 0.120000 0
0.840000 0.120000 0
0.860000 0.120000 0
0.880000 0.120000 0
0.900000 0.120000 0
0.920000 0.120000 0
0.940000 0.120000 0
0.960000 0.120000 0
0.980000 0.120000 0
1.000000 0.120000 0
0.000000 0.140000 0
0.020000 0.140000 0
0.040000 0.140000 0
0.060000 0.140000 0
0.080000 0.140000 0
0.100000 0.140000 0
0.120000 0.140000 0
0.140000 0.140000 0
0.160000 0.140000 0
0.180000 0.140000 0
0.200000 0.140000 0
0.220000 0.140000 0
0.240000 0.140000 0
0.260000 0.140000 0
0.280000 0.140000 0
0.300000 0.140000 0
0.320000 0.140000 0
0.340000 0.140000 0
0.360000 0.140000 0
0.380000 0.140000 0
0.400000 0.140000 0
0.420000 0.140000 0
0.440000 0.140000 0
0.460000 0.140000 0
0.480000 0.140000 0
0.500000 0.140000 0
0.520000 0.140000 0
0.540000 0.140000 0
0.560000 0.140000 0
0.580000 0.140000 0
0.600000 0.140000 0
0.620000 0.140000 0
0.640000 0.140000 0
0.660000 0.140000 0
0.680000 0.140000 0
0.700000 0.140000 0
0.720000 0.140000 0
0.740000 0.140000 0
0.760000 0.140000 0
0.780000 0.140000 0
0.800000 0.140000 0
0.820000 0.140000 0
0.840000 0.140000 0
0.860000 0.140000 0
0.880000 0.140000 0
0.900000 0.140000 0
0.920000 0.140000 0
0.940000 0.140000 0
0.960000 0.140000 0
0.980000 0.140000 0
1.000000 0.140000 0
0.000000 0.160000 0
0.020000 0.160000 0
0.040000 0.160000 0
0.060000 0.160000 0
0.080000 0.160000 0
0.100000 0.160000 0
0.120000 0.160000 0
0.140000 0.160000 0
0.160000 0.160000 0
0.180000 0.160000 0
0.200000 0.160000 0
0.220000 0.160000 0
0.240000 0.160000 0
0.260000 0.160000 0
0.280000 0.160000 0
0.300000 0.160000 0
0.320000 0.160000 0
0.340000 0.160000 0
0.360000 0.160000 0
0.380000 0.160000 0
0.400000 0.160000 0
0.420000 0.160000 0
0.440000 0.160000 0
0.460000 0.160000 0
0.480000 0.160000 0
0.500000 0.160000 0
0.520000 0.160000 0
0.540000 0.160000 0
0.560000 0.160000 0
0.580000 0.160000 0
0.600000 0.160000 0
0.620000 0.160000 0
0.640000 0.160000 0
0.660000 0.160000 0
0.680000 0.160000 0
0.700000 0.160000 0
0.720000 0.160000 0
0.740000 0.160000 0
0.760000 0.160000 0
0.780000 0.160000 0
0.800000 0.160000 0
0.820000 0.160000 0
0.840000 0.160000 0
0.860000 0.160000 0
0.880000 0.160000 0
0.900000 0.160000 0
0.920000 0.160000 0
0.940000 0.160000 0
0.960000 0.160000 0
0.980000 0.160000 0
1.000000 0.160000 0
0.000000 0.180000 0
0.020000 0.180000 0
0.040000 0.180000 0
0.060000 0.180000 0
0.080000 0.180000 0
0.100000 0.180000 0
0.120000 0.180000 0
0.140000 0.180000 0
0.160000 0.180000 0
0.180000 0.180000 0
0.200000 0.180000 0
0.220000 0.180000 0
0.240000 0.180000 0
0.260000 0.180000 0
0.280000 0.180000 0
0.300000 0.180000 0
0.320000 0.180000 0
0.340000 0.180000 0
0.360000 0.180000 0
0.380000 0.180000 0
0.400000 0.180000 0
0.420000 0.180000 0
0.440000 0.180000 0
0.460000 0.180000 0
0.480000 0.180000 0
0.500000 0.180000 0
0.520000 0.180000 0
0.540000 0.180000 0
0.560000 0.180000 0
0.580000 0.180000 0
0.600000 0.180000 0
0.620000 0.180000 0
[...]
POINT_DATA 2601 

VECTORS velocity float
0.000000 0.000000 0
-0.000000 0.000000 0
-0.000001 0.000000 0
-0.000002 0.000000 0
-0.000003 0.000000 0
-0.000004 0.000000 0
-0.000005 0.000000 0
-0.000007 0.000000 0
-0.000008 0.000000 0
-0.000009 0.000000 0
-0.000010 0.000000 0
-0.000010 0.000000 0
-0.000010 0.000000 0
-0.000009 0.000000 0
-0.000008 0.000000 0
-0.000006 0.000000 0
-0.000004 0.000000 0
-0.000002 0.000000 0
0.000000 0.000000 0
0.000002 0.000000 0
0.000003 0.000000 0
0.000004 0.000000 0
0.000004 0.000000 0
0.000005 0.000000 0
0.000005 0.000000 0
0.000005 0.000000 0
0.000005 0.000000 0
0.000004 0.000000 0
0.000004 0.000000 0
0.000004 0.000000 0
0.000003 0.000000 0
0.000003 0.000000 0
0.000003 0.000000 0
0.000002 0.000000 0
0.000002 0.000000 0
0.000002 0.000000 0
0.000002 0.000000 0
0.000001 0.000000 0
0.000001 0.000000 0
0.000001 0.000000 0
0.000001 0.000000 0
0.000001 0.000000 0
0.000001 0.000000 0
0.000001 0.000000 0
0.000000 0.000000 0
0.000000 0.000000 0
0.000000 0.000000 0
0.000000 0.000000 0
0.000000 0.000000 0
-0.000000 0.000000 0
0.000000 0.000000 0
0.000000 0.000000 0
-0.001659 0.001704 0
-0.006164 0.003144 0
-0.011699 0.003244 0
-0.016387 0.002217 0
-0.019052 0.000632 0
-0.019255 -0.001084 0
-0.016962 -0.002744 0
-0.012282 -0.004270 0
-0.005391 -0.005580 0
0.003450 -0.006593 0
0.013814 -0.007248 0
0.025152 -0.007487 0
0.036875 -0.007269 0
0.048301 -0.006602 0
0.058771 -0.005558 0
0.067681 -0.004246 0
0.074580 -0.002803 0
0.079196 -0.001363 0
0.081468 -0.000048 0
0.081529 0.001107 0
0.079651 0.002105 0
0.076139 0.002932 0
0.071303 0.003587 0
0.065456 0.004067 0
0.058913 0.004365 0
0.051983 0.004480 0
0.044967 0.004414 0
0.038139 0.004186 0
0.031733 0.003827 0
0.025925 0.003375 0
0.020830 0.002876 0
0.016497 0.002371 0
0.012920 0.001895 0
0.010047 0.001470 0
0.007794 0.001111 0
0.006066 0.000821 0
0.004761 0.000596 0
0.003782 0.000431 0
0.003044 0.000316 0
0.002474 0.000242 0
0.002012 0.000200 0
0.001615 0.000178 0
0.001256 0.000168 0
0.000922 0.000159 0
0.000614 0.000144 0
0.000347 0.000116 0
0.000141 0.000073 0
0.000017 0.000021 0
-0.000020 -0.000019 0
0.000000 -0.000000 0
0.000000 0.000001 0
-0.003310 0.006162 0
-0.010782 0.010040 0
-0.019660 0.010222 0
-0.027406 0.007352 0
-0.032411 0.002866 0
-0.034016 -0.002092 0
-0.032153 -0.006974 0
-0.026955 -0.011572 0
-0.018615 -0.015734 0
-0.007366 -0.019207 0
0.006440 -0.021704 0
0.022276 -0.023064 0
0.039413 -0.023152 0
0.057038 -0.021898 0
0.074257 -0.019382 0
0.090073 -0.015810 0
0.103583 -0.011517 0
0.113993 -0.006890 0
0.120783 -0.002335 0
0.123753 0.001816 0
0.123102 0.005389 0
0.119361 0.008347 0
0.113111 0.010682 0
0.104940 0.012390 0
0.095427 0.013473 0
0.085121 0.013945 0
0.074527 0.013844 0
0.064090 0.013235 0
0.054180 0.012215 0
0.045077 0.010903 0
0.036971 0.009427 0
0.029957 0.007909 0
0.024048 0.006451 0
0.019191 0.005126 0
0.015285 0.003981 0
0.012200 0.003034 0
0.009794 0.002284 0
0.007927 0.001717 0
0.006469 0.001309 0
0.005306 0.001033 0
0.004345 0.000859 0
0.003515 0.000756 0
0.002770 0.000694 0
0.002086 0.000643 0
0.001462 0.000575 0
0.000916 0.000473 0
0.000477 0.000330 0
0.000175 0.000162 0
0.000023 0.000017 0
0.000000 0.000000 0
0.000000 0.000001 0
-0.004334 0.012484 0
-0.013778 0.019492 0
-0.024985 0.019868 0
-0.035138 0.014967 0
-0.042498 0.007241 0
-0.046350 -0.001343 0
-0.046628 -0.009806 0
-0.043523 -0.017808 0
-0.037238 -0.025169 0
-0.027958 -0.031650 0
-0.015820 -0.036891 0
-0.001022 -0.040460 0
0.016076 -0.042032 0
0.034956 -0.041447 0
0.054827 -0.038594 0
0.074728 -0.033573 0
0.093591 -0.026723 0
0.110150 -0.018564 0
0.123281 -0.009809 0
0.132090 -0.001213 0
0.136110 0.006497 0
0.135525 0.012923 0
0.131117 0.018008 0
0.123729 0.021750 0
0.114200 0.024184 0
0.103306 0.025380 0
0.091739 0.025445 0
0.080085 0.024534 0
0.068819 0.022839 0
0.058299 0.020584 0
0.048770 0.017997 0
0.040373 0.015295 0
0.033155 0.012661 0
0.027091 0.010234 0
0.022093 0.008102 0
0.018040 0.006311 0
0.014786 0.004868 0
0.012182 0.003756 0
0.010083 0.002937 0
0.008361 0.002367 0
0.006908 0.001991 0
0.005638 0.001753 0
0.004494 0.001597 0
0.003445 0.001468 0
0.002486 0.001315 0
0.001635 0.001101 0
0.000928 0.000815 0
0.000403 0.000475 0
0.000092 0.000156 0
0.000000 0.000000 0
0.000000 0.000002 0
-0.004843 0.019939 0
-0.015474 0.030691 0
-0.028312 0.031582 0
-0.040443 0.024864 0
-0.050089 0.014078 0
-0.056521 0.002038 0
-0.059640 -0.009803 0
-0.059669 -0.020963 0
-0.056832 -0.031300 0
-0.051271 -0.040626 0
-0.043059 -0.048640 0
-0.032208 -0.054961 0
-0.018701 -0.059131 0
-0.002651 -0.060650 0
0.015652 -0.059155 0
0.035756 -0.054575 0
0.056715 -0.046940 0
0.077322 -0.036580 0
0.096246 -0.024275 0
0.111956 -0.011014 0
0.123113 0.001954 0
0.128870 0.013340 0
0.129361 0.022477 0
0.125591 0.029307 0
0.118638 0.033896 0
0.109503 0.036407 0
0.099073 0.037065 0
0.088082 0.036154 0
0.077113 0.034001 0
0.066604 0.030953 0
0.056864 0.027354 0
0.048085 0.023524 0
0.040366 0.019733 0
0.033723 0.016189 0
0.028110 0.013032 0
0.023433 0.010342 0
0.019570 0.008143 0
0.016387 0.006420 0
0.013747 0.005129 0
0.011523 0.004208 0
0.009605 0.003582 0
0.007906 0.003170 0
0.006363 0.002887 0
0.004940 0.002651 0
0.003632 0.002385 0
0.002455 0.002031 0
0.001450 0.001563 0
0.000671 0.000998 0
0.000173 0.000421 0
0.000000 0.000000 0
0.000000 0.000003 0
-0.004986 0.027958 0
-0.016156 0.042961 0
-0.030007 0.044836 0
-0.043664 0.036744 0
-0.055324 0.023319 0
-0.064211 0.008207 0
-0.070178 -0.006659 0
-0.073384 -0.020617 0
-0.074078 -0.033568 0
-0.072391 -0.045424 0
-0.068367 -0.055955 0
-0.061983 -0.064819 0
-0.053184 -0.071590 0
-0.041868 -0.075801 0
-0.027921 -0.077002 0
-0.011349 -0.074637 0
0.007509 -0.068290 0
0.028176 -0.058095 0
0.049631 -0.044444 0
0.070235 -0.028080 0
0.088273 -0.010418 0
0.102102 0.006675 0
0.110027 0.021287 0
0.112387 0.032473 0
0.110369 0.040272 0
0.105126 0.044944 0
0.097728 0.046866 0
0.089056 0.046494 0
0.079812 0.044318 0
0.070532 0.040833 0
0.061602 0.036516 0
0.053286 0.031792 0
0.045749 0.027023 0
0.039068 0.022491 0
0.033254 0.018393 0
0.028264 0.014851 0
0.024018 0.011914 0
0.020412 0.009579 0
0.017335 0.007802 0
0.014675 0.006509 0
0.012334 0.005608 0
0.010228 0.004996 0
0.008298 0.004563 0
0.006507 0.004199 0
0.004845 0.003800 0
0.003333 0.003283 0
0.002015 0.002599 0
0.000963 0.001752 0
0.000261 0.000827 0
0.000000 0.000000 0
0.000000 0.000003 0
-0.004865 0.036094 0
-0.016041 0.055711 0
-0.030334 0.059089 0
-0.045025 0.050181 0
-0.058291 0.034625 0
-0.069273 0.016892 0
-0.077756 -0.000629 0
-0.083785 -0.017064 0
-0.087596 -0.032294 0
-0.089365 -0.046337 0
-0.089145 -0.059049 0
-0.086916 -0.070145 0
-0.082604 -0.079246 0
-0.076087 -0.085914 0
-0.067219 -0.089675 0
-0.055864 -0.090006 0
-0.041794 -0.086466 0
-0.024915 -0.078703 0
-0.005571 -0.066335 0
0.015557 -0.049657 0
0.037340 -0.029914 0
0.057814 -0.008414 0
0.074292 0.012193 0
0.084840 0.028964 0
0.089881 0.041157 0
0.090508 0.049048 0
0.087939 0.053134 0
0.083160 0.054070 0
0.076993 0.052526 0
0.070088 0.049163 0
0.062927 0.044599 0
0.055866 0.039377 0
0.049154 0.033952 0
0.042949 0.028684 0
0.037336 0.023837 0
0.032340 0.019578 0
0.027938 0.015995 0
0.024075 0.013103 0
0.020678 0.010866 0
0.017665 0.009210 0
0.014957 0.008030 0
0.012486 0.007206 0
0.010199 0.006609 0
0.008061 0.006103 0
0.006064 0.005559 0
0.004225 0.004862 0
0.002598 0.003933 0
0.001268 0.002752 0
0.000354 0.001384 0
0.000000 0.000001 0
0.000000 0.000004 0
-0.004555 0.043998 0
-0.015307 0.068429 0
-0.029530 0.073819 0
-0.044763 0.064702 0
-0.059183 0.047566 0
-0.071821 0.027671 0
-0.082369 0.007853 0
-0.090821 -0.010776 0
-0.097296 -0.027988 0
-0.102036 -0.043875 0
-0.105137 -0.058405 0
-0.106602 -0.071361 0
-0.106367 -0.082420 0
-0.104314 -0.091187 0
-0.100276 -0.097225 0
-0.094045 -0.100062 0
-0.085340 -0.099240 0
-0.073925 -0.094320 0
-0.059577 -0.084917 0
-0.042038 -0.070992 0
-0.021611 -0.052675 0
0.000578 -0.030277 0
0.023052 -0.005739 0
0.042902 0.016884 0
0.056826 0.034603 0
0.065166 0.046885 0
0.069199 0.054213 0
0.069873 0.057440 0
0.068139 0.057389 0
0.064769 0.054899 0
0.060353 0.050738 0
0.055355 0.045566 0
0.050135 0.039941 0
0.044946 0.034308 0
0.039966 0.029003 0
0.035302 0.024249 0
0.031005 0.020179 0
0.027083 0.016839 0
0.023515 0.014213 0
0.020262 0.012230 0
0.017276 0.010787 0
0.014509 0.009755 0
0.011924 0.008988 0
0.009491 0.008334 0
0.007203 0.007636 0
0.005077 0.006749 0
0.003167 0.005557 0
0.001574 0.003996 0
0.000451 0.002095 0
0.000000 0.000001 0
0.000000 0.000004 0
-0.004115 0.051401 0
-0.014115 0.080686 0
-0.027831 0.088545 0
-0.043146 0.079833 0
-0.058277 0.061682 0
-0.072140 0.040078 0
-0.084327 0.018370 0
-0.094806 -0.002138 0
-0.103596 -0.021079 0
-0.110905 -0.038496 0
-0.116903 -0.054483 0
-0.121629 -0.068916 0
-0.125038 -0.081535 0
-0.127019 -0.092006 0
-0.127407 -0.099945 0
-0.125970 -0.104943 0
-0.122412 -0.106586 0
-0.116394 -0.104467 0
-0.107520 -0.098223 0
-0.095372 -0.087623 0
-0.079765 -0.072530 0
-0.060585 -0.053078 0
-0.037958 -0.030132 0
-0.013411 -0.004809 0
0.009476 0.018892 0
0.027491 0.036674 0
0.040038 0.048428 0
0.047819 0.055131 0
0.051995 0.057629 0
0.053437 0.056949 0
0.052839 0.054013 0
0.050810 0.049595 0
0.047836 0.044361 0
0.044289 0.038853 0
0.040452 0.033482 0
0.036533 0.028540 0
0.032673 0.024213 0
0.028958 0.020592 0
0.025432 0.017688 0
0.022110 0.015450 0
0.018986 0.013782 0
0.016046 0.012558 0
0.013268 0.011627 0
0.010636 0.010824 0
0.008143 0.009974 0
0.005805 0.008898 0
0.003674 0.007436 0
0.001861 0.005467 0
0.000548 0.002958 0
0.000000 0.000001 0
0.000000 0.000005 0
-0.003594 0.058111 0
-0.012608 0.092145 0
-0.025464 0.102850 0
-0.040454 0.095147 0
-0.055897 0.076561 0
-0.070604 0.053721 0
-0.084055 0.030519 0
-0.096170 0.008492 0
-0.106998 -0.011890 0
-0.116568 -0.030568 0
-0.125111 -0.047681 0
-0.132713 -0.063227 0
-0.139350 -0.077030 0
-0.144922 -0.088818 0
-0.149265 -0.098275 0
-0.152147 -0.105057 0
-0.153269 -0.108816 0
-0.152267 -0.109213 0
-0.148704 -0.105939 0
-0.142093 -0.098748 0
-0.131961 -0.087463 0
-0.117819 -0.072084 0
-0.099360 -0.052914 0
-0.076846 -0.030551 0
-0.050794 -0.006298 0
-0.024832 0.016323 0
-0.002763 0.033886 0
0.014029 0.045482 0
0.026053 0.051770 0
0.033888 0.054055 0
0.038445 0.053365 0
0.040519 0.050569 0
0.040753 0.046461 0
0.039651 0.041693 0
0.037626 0.036759 0
0.035013 0.032028 0
0.032057 0.027753 0
0.028935 0.024080 0
0.025774 0.021061 0
0.022656 0.018676 0
0.019628 0.016852 0
0.016715 0.015473 0
0.013925 0.014398 0
0.011255 0.013459 0
0.008704 0.012467 0
0.006286 0.011218 0
0.004046 0.009501 0
0.002095 0.007123 0
0.000636 0.003956 0
0.000000 0.000001 0
0.000000 0.000005 0
-0.003035 0.064008 0
-0.010917 0.102555 0
-0.022645 0.116391 0
-0.036967 0.110266 0
-0.052364 0.091831 0
-0.067573 0.068236 0
-0.081953 0.043937 0
-0.095370 0.020805 0
-0.107902 -0.000682 0
-0.119523 -0.020384 0
-0.130322 -0.038338 0
-0.140458 -0.054677 0
-0.149936 -0.069326 0
-0.158664 -0.082091 0
-0.166478 -0.092721 0
-0.173147 -0.100940 0
-0.178376 -0.106467 0
-0.181804 -0.109032 0
-0.183003 -0.108397 0
-0.181485 -0.104366 0
-0.176715 -0.096804 0
-0.168115 -0.085680 0
-0.155161 -0.071104 0
-0.137511 -0.053376 0
-0.115071 -0.033123 0
-0.088489 -0.011357 0
-0.060688 0.009567 0
-0.034966 0.026314 0
-0.013982 0.037769 0
0.002019 0.044557 0
0.013632 0.047382 0
0.021471 0.047287 0
0.026285 0.045230 0
0.028785 0.041980 0
0.029554 0.038120 0
0.029080 0.034109 0
0.027734 0.030290 0
0.025808 0.026875 0
0.023525 0.023968 0
0.021051 0.021596 0
0.018502 0.019723 0
0.015950 0.018262 0
0.013442 0.017088 0
0.010996 0.016045 0
0.008624 0.014942 0
0.006336 0.013557 0
0.004168 0.011628 0
0.002218 0.008878 0
0.000702 0.005053 0
0.000000 0.000001 0
0.000000 0.000005 0
-0.002472 0.069028 0
-0.009152 0.111754 0
-0.019571 0.128900 0
-0.032946 0.124866 0
-0.047985 0.107167 0
-0.063397 0.083310 0
-0.078412 0.058315 0
-0.092824 0.034441 0
-0.106700 0.012263 0
-0.120117 -0.008149 0
-0.132955 -0.026746 0
-0.145327 -0.043613 0
-0.157289 -0.058824 0
-0.168760 -0.072277 0
-0.179577 -0.083792 0
-0.189508 -0.093159 0
-0.198258 -0.100160 0
-0.205472 -0.104586 0
-0.210741 -0.106258 0
-0.213609 -0.105035 0
-0.213576 -0.100834 0
-0.210108 -0.093639 0
-0.202679 -0.083518 0
-0.190815 -0.070641 0
-0.174172 -0.055321 0
-0.152727 -0.038061 0
-0.126883 -0.019637 0
-0.098584 -0.001224 0
-0.070966 0.014785 0
-0.046407 0.026441 0
-0.026464 0.033913 0
-0.011110 0.037916 0
0.000177 0.039147 0
0.008040 0.038424 0
0.013147 0.036464 0
0.016118 0.033848 0
0.017497 0.031026 0
0.017720 0.028290 0
0.017140 0.025818 0
0.016024 0.023700 0
0.014570 0.021952 0
0.012917 0.020534 0
0.011157 0.019353 0
0.009349 0.018276 0
0.007519 0.017128 0
0.005682 0.015675 0
0.003864 0.013618 0
0.002143 0.010589 0
0.000717 0.006175 0
0.000000 0.000001 0
0.000000 0.000005 0
-0.001929 0.073159 0
-0.007403 0.119654 0
-0.016411 0.140184 0
-0.028626 0.138680 0
-0.043041 0.122282 0
-0.058387 0.098663 0
-0.073775 0.073364 0
-0.088896 0.049093 0
-0.103799 0.026612 0
-0.118613 0.005871 0
-0.133292 -0.013128 0
-0.147657 -0.030343 0
-0.161779 -0.045894 0
-0.175609 -0.059803 0
-0.188991 -0.071973 0
-0.201691 -0.082259 0
-0.213413 -0.090503 0
-0.223807 -0.096549 0
-0.232478 -0.100260 0
-0.238998 -0.101532 0
-0.242921 -0.100305 0
-0.243792 -0.096577 0
-0.241171 -0.090398 0
-0.234652 -0.081883 0
-0.223896 -0.071211 0
-0.208697 -0.058646 0
-0.189062 -0.044575 0
-0.165341 -0.029603 0
-0.138422 -0.014408 0
-0.110687 0.000055 0
-0.084408 0.012085 0
-0.061229 0.020646 0
-0.042132 0.026080 0
-0.027174 0.029010 0
-0.015864 0.030041 0
-0.007618 0.029760 0
-0.001843 0.028689 0
0.002002 0.027231 0
0.004406 0.025664 0
0.005761 0.024166 0
0.006364 0.022831 0
0.006437 0.021674 0
0.006144 0.020656 0
0.005596 0.019684 0
0.004854 0.018609 0
0.003946 0.017211 0
0.002890 0.015167 0
0.001735 0.012025 0
0.000639 0.007195 0
0.000000 0.000001 0
0.000000 0.000005 0
-0.001425 0.076430 0
-0.005739 0.126236 0
-0.013304 0.150122 0
-0.024213 0.151496 0
-0.037780 0.136928 0
-0.052823 0.114044 0
-0.068351 0.088824 0
-0.083933 0.064465 0
-0.099564 0.041981 0
-0.115381 0.021344 0
-0.131474 0.002297 0
-0.147646 -0.015126 0
-0.163661 -0.030871 0
-0.179507 -0.045066 0
-0.195048 -0.057711 0
-0.210064 -0.068737 0
-0.224265 -0.078043 0
-0.237304 -0.085522 0
-0.248799 -0.091067 0
-0.258342 -0.094593 0
-0.265521 -0.096040 0
-0.269942 -0.095388 0
-0.271242 -0.092658 0
-0.269107 -0.087917 0
-0.263283 -0.081276 0
-0.253594 -0.072895 0
-0.239962 -0.062993 0
-0.222469 -0.051863 0
-0.201464 -0.039869 0
-0.177481 -0.027574 0
-0.151524 -0.015545 0
-0.125499 -0.004360 0
-0.101019 0.005092 0
-0.079176 0.012156 0
-0.060616 0.016908 0
-0.045516 0.019826 0
-0.033608 0.021406 0
-0.024386 0.022041 0
-0.017327 0.022059 0
-0.011983 0.021742 0
-0.007974 0.021277 0
-0.004992 0.020753 0
-0.002784 0.020193 0
-0.001174 0.019567 0
-0.000050 0.018778 0
0.000644 0.017639 0
0.000929 0.015829 0
0.000822 0.012840 0
0.000408 0.007910 0
0.000000 0.000001 0
0.000000 0.000005 0
-0.000973 0.078898 0
-0.004210 0.131534 0
-0.010361 0.158658 0
-0.019879 0.163156 0
-0.032419 0.150892 0
-0.046947 0.129233 0
-0.062410 0.104473 0
-0.078239 0.080306 0
-0.094346 0.058060 0
-0.110847 0.037781 0
-0.127850 0.019136 0
-0.145355 0.001844 0
-0.163050 -0.014032 0
-0.180640 -0.028416 0
-0.197989 -0.041416 0
-0.214911 -0.053042 0
-0.231146 -0.063263 0
-0.246363 -0.072015 0
-0.260195 -0.079223 0
-0.272254 -0.084809 0
-0.282147 -0.088705 0
-0.289505 -0.090856 0
-0.294000 -0.091233 0
-0.295366 -0.089841 0
-0.293406 -0.086724 0
-0.288003 -0.081967 0
-0.279117 -0.075700 0
-0.266798 -0.068101 0
-0.251200 -0.059396 0
-0.232583 -0.049885 0
-0.211465 -0.039897 0
-0.188437 -0.029859 0
-0.164308 -0.020243 0
-0.140265 -0.011393 0
-0.117483 -0.003619 0
-0.096750 0.002752 0
-0.078482 0.007558 0
-0.062809 0.010950 0
-0.049678 0.013262 0
-0.038859 0.014814 0
-0.029999 0.015839 0
-0.022734 0.016484 0
-0.016766 0.016839 0
-0.011870 0.016950 0
-0.007885 0.016791 0
-0.004724 0.016233 0
-0.002353 0.014990 0
-0.000787 0.012547 0
-0.000047 0.008017 0
0.000000 -0.000000 0
0.000000 0.000005 0
-0.000579 0.080640 0
-0.002848 0.135624 0
-0.007660 0.165791 0
-0.015760 0.173554 0
-0.027139 0.163997 0
-0.040967 0.144035 0
-0.056176 0.120116 0
-0.072066 0.096401 0
-0.088435 0.074589 0
-0.105352 0.054848 0
-0.122921 0.036805 0
-0.141164 0.020074 0
-0.159996 0.004414 0
-0.179040 -0.010126 0
-0.197949 -0.023440 0
-0.216435 -0.035579 0
-0.234314 -0.046592 0
-0.251287 -0.056473 0
-0.267030 -0.065176 0
-0.281181 -0.072640 0
-0.293365 -0.078788 0
-0.303220 -0.083534 0
-0.310417 -0.086797 0
-0.314684 -0.088510 0
-0.315827 -0.088638 0
-0.313731 -0.087183 0
-0.308375 -0.084198 0
-0.299816 -0.079781 0
-0.288195 -0.074084 0
-0.273725 -0.067308 0
-0.256713 -0.059692 0
-0.237515 -0.051517 0
-0.216640 -0.043080 0
-0.194671 -0.034668 0
-0.172203 -0.026606 0
-0.149866 -0.019175 0
-0.128354 -0.012535 0
-0.108274 -0.006762 0
-0.090012 -0.001890 0
-0.073703 0.002063 0
-0.059337 0.005152 0
-0.046812 0.007521 0
-0.036000 0.009329 0
-0.026747 0.010686 0
-0.018915 0.011633 0
-0.012384 0.012107 0
-0.007124 0.011893 0
-0.003199 0.010534 0
-0.000772 0.007123 0
0.000000 -0.000001 0
0.000000 0.000005 0
-0.000249 0.081745 0
-0.001670 0.138614 0
-0.005252 0.171569 0
-0.011957 0.182635 0
-0.022086 0.176099 0
-0.035052 0.158270 0
-0.049831 0.135573 0
-0.065612 0.112566 0
-0.082058 0.091345 0
-0.099164 0.072267 0
-0.117013 0.054949 0
-0.135633 0.038920 0
-0.154956 0.023845 0
-0.174830 0.009537 0
-0.194882 -0.004021 0
-0.214719 -0.016677 0
-0.233939 -0.028410 0
-0.252307 -0.039298 0
-0.269574 -0.049329 0
-0.285429 -0.058474 0
-0.299531 -0.066665 0
-0.311530 -0.073804 0
-0.321083 -0.079768 0
-0.327888 -0.084431 0
-0.331702 -0.087676 0
-0.332364 -0.089419 0
-0.329809 -0.089615 0
-0.324064 -0.088280 0
-0.315252 -0.085486 0
-0.303580 -0.081367 0
-0.289324 -0.076107 0
-0.272811 -0.069932 0
-0.254423 -0.063087 0
-0.234560 -0.055830 0
-0.213640 -0.048424 0
-0.192134 -0.041097 0
-0.170508 -0.034033 0
-0.149187 -0.027391 0
-0.128533 -0.021310 0
-0.108859 -0.015862 0
-0.090451 -0.011051 0
-0.073515 -0.006853 0
-0.058163 -0.003227 0
-0.044426 -0.000135 0
-0.032311 0.002429 0
-0.021837 0.004442 0
-0.013089 0.005805 0
-0.006270 0.006194 0
-0.001728 0.004818 0
0.000000 -0.000002 0
0.000000 0.000005 0
0.000017 0.082309 0
-0.000683 0.140627 0
-0.003164 0.176078 0
-0.008539 0.190388 0
-0.017372 0.187092 0
-0.029341 0.171780 0
-0.043525 0.150677 0
-0.059032 0.128628 0
-0.075386 0.108140 0
-0.092486 0.089803 0
-0.110374 0.073274 0
-0.129074 0.058018 0
-0.148530 0.043612 0
-0.168607 0.029800 0
-0.189110 0.016450 0
-0.209730 0.003479 0
-0.230004 -0.009003 0
-0.249551 -0.020837 0
-0.268021 -0.032054 0
-0.285217 -0.042683 0
-0.300868 -0.052686 0
-0.314665 -0.061981 0
-0.326268 -0.070438 0
-0.335342 -0.077891 0
-0.341584 -0.084160 0
-0.344758 -0.089076 0
-0.344710 -0.092498 0
-0.341388 -0.094337 0
-0.334849 -0.094568 0
-0.325253 -0.093237 0
-0.312857 -0.090460 0
-0.297989 -0.086417 0
-0.281027 -0.081331 0
-0.262368 -0.075451 0
-0.242415 -0.069032 0
-0.221564 -0.062307 0
-0.200182 -0.055482 0
-0.178604 -0.048738 0
-0.157141 -0.042218 0
-0.136095 -0.036018 0
-0.115731 -0.030192 0
-0.096277 -0.024768 0
-0.077923 -0.019760 0
-0.060844 -0.015165 0
-0.045210 -0.010957 0
-0.031239 -0.007115 0
-0.019200 -0.003674 0
-0.009497 -0.000826 0
-0.002758 0.000853 0
0.000000 -0.000004 0
0.000000 0.000005 0
0.000234 0.082428 0
0.000116 0.141796 0
-0.001403 0.179425 0
-0.005543 0.196842 0
-0.013075 0.196902 0
-0.023944 0.184424 0
-0.037375 0.165264 0
-0.052445 0.144427 0
-0.068548 0.124800 0
-0.085467 0.107255 0
-0.103188 0.091538 0
-0.121720 0.077076 0
-0.141013 0.063378 0
-0.160951 0.050118 0
-0.181360 0.037102 0
-0.202019 0.024218 0
-0.222695 0.011413 0
-0.242977 -0.001280 0
-0.262448 -0.013662 0
-0.280717 -0.025626 0
-0.297559 -0.037217 0
-0.312778 -0.048402 0
-0.326087 -0.059090 0
-0.337145 -0.069114 0
-0.345605 -0.078260 0
-0.351152 -0.086292 0
-0.353534 -0.092984 0
-0.352590 -0.098141 0
-0.348266 -0.101621 0
-0.340629 -0.103359 0
-0.329868 -0.103371 0
-0.316279 -0.101761 0
-0.300239 -0.098707 0
-0.282175 -0.094442 0