# vtk DataFile Version 2.0
generated by CFD-lab course output (written by Tobias Neckel) 
ASCII

DATASET STRUCTURED_GRID
DIMENSIONS  51 51 1 
POINTS 2601 float

0.000000 0.000000 0
0.020000 0.000000 0
0.040000 0.000000 0
0.060000 0.000000 0
0.080000 0.000000 0
0.100000 0.000000 0
0.120000 0.000000 0
0.140000 0.000000 0
0.160000 0.000000 0
0.180000 0.000000 0
0.200000 0.000000 0
0.220000 0.000000 0
0.240000 0.000000 0
0.260000 0.000000 0
0.280000 0.000000 0
0.300000 0.000000 0
0.320000 0.000000 0
0.340000 0.000000 0
0.360000 0.000000 0
0.380000 0.000000 0
0.400000 0.000000 0
0.420000 0.000000 0
0.440000 0.000000 0
0.460000 0.000000 0
0.480000 0.000000 0
0.500000 0.000000 0
0.520000 0.000000 0
0.540000 0.000000 0
0.560000 0.000000 0
0.580000 0.000000 0
0.600000 0.000000 0
0.620000 0.000000 0
0.640000 0.000000 0
0.660000 0.000000 0
0.680000 0.000000 0
0.700000 0.000000 0
0.720000 0.000000 0
0.740000 0.000000 0
0.760000 0.000000 0
0.780000 0.000000 0
0.800000 0.000000 0
0.820000 0.000000 0
0.840000 0.000000 0
0.860000 0.000000 0
0.880000 0.000000 0
0.900000 0.000000 0
0.920000 0.000000 0
0.940000 0.000000 0
0.960000 0.000000 0
0.980000 0.000000 0
1.000000 0.000000 0
0.000000 0.020000 0
0.020000 0.020000 0
0.040000 0.020000 0
0.060000 0.020000 0
0.080000 0.020000 0
0.100000 0.020000 0
0.120000 0.020000 0
0.140000 0.020000 0
0.160000 0.020000 0
0.180000 0.020000 0
0.200000 0.020000 0
0.220000 0.020000 0
0.240000 0.020000 0
0.260000 0.020000 0
0.280000 0.020000 0
0.300000 0.020000 0
0.320000 0.020000 0
0.340000 0.020000 0
0.360000 0.020000 0
0.380000 0.020000 0
0.400000 0.020000 0
0.420000 0.020000 0
0.440000 0.020000 0
0.460000 0.020000 0
0.480000 0.020000 0
0.500000 0.020000 0
0.520000 0.020000 0
0.540000 0.020000 0
0.560000 0.020000 0
0.580000 0.020000 0
0.600000 0.020000 0
0.620000 0.020000 0
0.640000 0.020000 0
0.660000 0.020000 0
0.680000 0.020000 0
0.700000 0.020000 0
0.720000 0.020000 0
0.740000 0.020000 0
0.760000 0.020000 0
0.780000 0.020000 0
0.800000 0.020000 0
0.820000 0.020000 0
0.840000 0.020000 0
0.860000 0.020000 0
0.880000 0.020000 0
0.900000 0.020000 0
0.920000 0.020000 0
0.940000 0.020000 0
0.960000 0.020000 0
0.980000 0.020000 0
1.000000 0.020000 0
0.000000 0.040000 0
0.020000 0.040000 0
0.040000 0.040000 0
0.060000 0.040000 0
0.080000 0.040000 0
0.100000 0.040000 0
0.120000 0.040000 0
0.140000 0.040000 0
0.160000 0.040000 0
0.180000 0.040000 0
0.200000 0.040000 0
0.220000 0.040000 0
0.240000 0.040000 0
0.260000 0.040000 0
0.280000 0.040000 0
0.300000 0.040000 0
0.320000 0.040000 0
0.340000 0.040000 0
0.360000 0.040000 0
0.380000 0.040000 0
0.400000 0.040000 0
0.420000 0.040000 0
0.440000 0.040000 0
0.460000 0.040000 0
0.480000 0.040000 0
0.500000 0.040000 0
0.520000 0.040000 0
0.540000 0.040000 0
0.560000 0.040000 0
0.580000 0.040000 0
0.600000 0.040000 0
0.620000 0.040000 0
0.640000 0.040000 0
0.660000 0.040000 0
0.680000 0.040000 0
0.700000 0.040000 0
0.720000 0.040000 0
0.740000 0.040000 0
0.760000 0.040000 0
0.780000 0.040000 0
0.800000 0.040000 0
0.820000 0.040000 0
0.840000 0.040000 0
0.860000 0.040000 0
0.880000 0.040000 0
0.900000 0.040000 0
0.920000 0.040000 0
0.940000 0.040000 0
0.960000 0.040000 0
0.980000 0.040000 0
1.000000 0.040000 0
0.000000 0.060000 0
0.020000 0.060000 0
0.040000 0.060000 0
0.060000 0.060000 0
0.080000 0.060000 0
0.100000 0.060000 0
0.120000 0.060000 0
0.140000 0.060000 0
0.160000 0.060000 0
0.180000 0.060000 0
0.200000 0.060000 0
0.220000 0.060000 0
0.240000 0.060000 0
0.260000 0.060000 0
0.280000 0.060000 0
0.300000 0.060000 0
0.320000 0.060000 0
0.340000 0.060000 0
0.360000 0.060000 0
0.380000 0.060000 0
0.400000 0.060000 0
0.420000 0.060000 0
0.440000 0.060000 0
0.460000 0.060000 0
0.480000 0.060000 0
0.500000 0.060000 0
0.520000 0.060000 0
0.540000 0.060000 0
0.560000 0.060000 0
0.580000 0.060000 0
0.600000 0.060000 0
0.620000 0.060000 0
0.640000 0.060000 0
0.660000 0.060000 0
0.680000 0.060000 0
0.700000 0.060000 0
0.720000 0.060000 0
0.740000 0.060000 0
0.760000 0.060000 0
0.780000 0.060000 0
0.800000 0.060000 0
0.820000 0.060000 0
0.840000 0.060000 0
0.860000 0.060000 0
0.880000 0.060000 0
0.900000 0.060000 0
0.920000 0.060000 0
0.940000 0.060000 0
0.960000 0.060000 0
0.980000 0.060000 0
1.000000 0.060000 0
0.000000 0.080000 0
0.020000 0.080000 0
0.040000 0.080000 0
0.060000 0.080000 0
0.080000 0.080000 0
0.100000 0.080000 0
0.120000 0.080000 0
0.140000 0.080000 0
0.160000 0.080000 0
0.180000 0.080000 0
0.200000 0.080000 0
0.220000 0.080000 0
0.240000 0.080000 0
0.260000 0.080000 0
0.280000 0.080000 0
0.300000 0.080000 0
0.320000 0.080000 0
0.340000 0.080000 0
0.360000 0.080000 0
0.380000 0.080000 0
0.400000 0.080000 0
0.420000 0.080000 0
0.440000 0.080000 0
0.460000 0.080000 0
0.480000 0.080000 0
0.500000 0.080000 0
0.520000 0.080000 0
0.540000 0.080000 0
0.560000 0.080000 0
0.580000 0.080000 0
0.600000 0.080000 0
0.620000 0.080000 0
0.640000 0.080000 0
0.660000 0.080000 0
0.680000 0.080000 0
0.700000 0.080000 0
0.720000 0.080000 0
0.740000 0.080000 0
0.760000 0.080000 0
0.780000 0.080000 0
0.800000 0.080000 0
0.820000 0.080000 0
0.840000 0.080000 0
0.860000 0.080000 0
0.880000 0.080000 0
0.900000 0.080000 0
0.920000 0.080000 0
0.940000 0.080000 0
0.960000 0.080000 0
0.980000 0.080000 0
1.000000 0.080000 0
0.000000 0.100000 0
0.020000 0.100000 0
0.040000 0.100000 0
0.060000 0.100000 0
0.080000 0.100000 0
0.100000 0.100000 0
0.120000 0.100000 0
0.140000 0.100000 0
0.160000 0.100000 0
0.180000 0.100000 0
0.200000 0.100000 0
0.220000 0.100000 0
0.240000 0.100000 0
0.260000 0.100000 0
0.280000 0.100000 0
0.300000 0.100000 0
0.320000 0.100000 0
0.340000 0.100000 0
0.360000 0.100000 0
0.380000 0.100000 0
0.400000 0.100000 0
0.420000 0.100000 0
0.440000 0.100000 0
0.460000 0.100000 0
0.480000 0.100000 0
0.500000 0.100000 0
0.520000 0.100000 0
0.540000 0.100000 0
0.560000 0.100000 0
0.580000 0.100000 0
0.600000 0.100000 0
0.620000 0.100000 0
0.640000 0.100000 0
0.660000 0.100000 0
0.680000 0.100000 0
0.700000 0.100000 0
0.720000 0.100000 0
0.740000 0.100000 0
0.760000 0.100000 0
0.780000 0.100000 0
0.800000 0.100000 0
0.820000 0.100000 0
0.840000 0.100000 0
0.860000 0.100000 0
0.880000 0.100000 0
0.900000 0.100000 0
0.920000 0.100000 0
0.940000 0.100000 0
0.960000 0.100000 0
0.980000 0.100000 0
1.000000 0.100000 0
0.000000 0.120000 0
0.020000 0.120000 0
0.040000 0.120000 0
0.060000 0.120000 0
0.080000 0.120000 0
0.100000 0.120000 0
0.120000 0.120000 0
0.140000 0.120000 0
0.160000 0.120000 0
0.180000 0.120000 0
0.200000 0.120000 0
0.220000 0.120000 0
0.240000 0.120000 0
0.260000 0.120000 0
0.280000 0.120000 0
0.300000 0.120000 0
0.320000 0.120000 0
0.340000 0.120000 0
0.360000 0.120000 0
0.380000 0.120000 0
0.400000 0.120000 0
0.420000 0.120000 0
0.440000 0.120000 0
0.460000 0.120000 0
0.480000 0.120000 0
0.500000 0.120000 0
0.520000 0.120000 0
0.540000 0.120000 0
0.560000 0.120000 0
0.580000 0.120000 0
0.600000 0.120000 0
0.620000 0.120000 0
0.640000 0.120000 0
0.660000 0.120000 0
0.680000 0.120000 0
0.700000 0.120000 0
0.720000 0.120000 0
0.740000 0.120000 0
0.760000 0.120000 0
0.780000 0.120000 0
0.800000 0.120000 0
0.820000 0.120000 0
0.840000 0.120000 0
0.860000 0.120000 0
0.880000 0.120000 0
0.900000 0.120000 0
0.920000 0.120000 0
0.940000 0.120000 0
0.960000 0.120000 0
0.980000 0.120000 0
1.000000 0.120000 0
0.000000 0.140000 0
0.020000 0.140000 0
0.040000 0.140000 0
0.060000 0.140000 0
0.080000 0.140000 0
0.100000 0.140000 0
0.120000 0.140000 0
0.140000 0.140000 0
0.160000 0.140000 0
0.180000 0.140000 0
0.200000 0.140000 0
0.220000 0.140000 0
0.240000 0.140000 0
0.260000 0.140000 0
0.280000 0.140000 0
0.300000 0.140000 0
0.320000 0.140000 0
0.340000 0.140000 0
0.360000 0.140000 0
0.380000 0.140000 0
0.400000 0.140000 0
0.420000 0.140000 0
0.440000 0.140000 0
0.460000 0.140000 0
0.480000 0.140000 0
0.500000 0.140000 0
0.520000 0.140000 0
0.540000 0.140000 0
0.560000 0.140000 0
0.580000 0.140000 0
0.600000 0.140000 0
0.620000 0.140000 0
0.640000 0.140000 0
0.660000 0.140000 0
0.680000 0.140000 0
0.700000 0.140000 0
0.720000 0.140000 0
0.740000 0.140000 0
0.760000 0.140000 0
0.780000 0.140000 0
0.800000 0.140000 0
0.820000 0.140000 0
0.840000 0.140000 0
0.860000 0.140000 0
0.880000 0.140000 0
0.900000 0.140000 0
0.920000 0.140000 0
0.940000 0.140000 0
0.960000 0.140000 0
0.980000 0.140000 0
1.000000 0.140000 0
0.000000 0.160000 0
0.020000 0.160000 0
0.040000 0.160000 0
0.060000 0.160000 0
0.080000 0.160000 0
0.100000 0.160000 0
0.120000 0.160000 0
0.140000 0.160000 0
0.160000 0.160000 0
0.180000 0.160000 0
0.200000 0.160000 0
0.220000 0.160000 0
0.240000 0.160000 0
0.260000 0.160000 0
0.280000 0.160000 0
0.300000 0.160000 0
0.320000 0.160000 0
0.340000 0.160000 0
0.360000 0.160000 0
0.380000 0.160000 0
0.400000 0.160000 0
0.420000 0.160000 0
0.440000 0.160000 0
0.460000 0.160000 0
0.480000 0.160000 0
0.500000 0.160000 0
0.520000 0.160000 0
0.540000 0.160000 0
0.560000 0.160000 0
0.580000 0.160000 0
0.600000 0.160000 0
0.620000 0.160000 0
0.640000 0.160000 0
0.660000 0.160000 0
0.680000 0.160000 0
0.700000 0.160000 0
0.720000 0.160000 0
0.740000 0.160000 0
0.760000 0.160000 0
0.780000 0.160000 0
0.800000 0.160000 0
0.820000 0.160000 0
0.840000 0.160000 0
0.860000 0.160000 0
0.880000 0.160000 0
0.900000 0.160000 0
0.920000 0.160000 0
0.940000 0.160000 0
0.960000 0.160000 0
0.980000 0.160000 0
1.000000 0.160000 0
0.000000 0.180000 0
0.020000 0.180000 0
0.040000 0.180000 0
0.060000 0.180000 0
0.080000 0.180000 0
0.100000 0.180000 0
0.120000 0.180000 0
0.140000 0.180000 0
0.160000 0.180000 0
0.180000 0.180000 0
0.200000 0.180000 0
0.220000 0.180000 0
0.240000 0.180000 0
0.260000 0.180000 0
0.280000 0.180000 0
0.300000 0.180000 0
0.320000 0.180000 0
0.340000 0.180000 0
0.360000 0.180000 0
0.380000 0.180000 0
0.400000 0.180000 0
0.420000 0.180000 0
0.440000 0.180000 0
0.460000 0.180000 0
0.480000 0.180000 0
0.500000 0.180000 0
0.520000 0.180000 0
0.540000 0.180000 0
0.560000 0.180000 0
0.580000 0.180000 0
0.600000 0.180000 0
0.620000 0.180000 0
[...]
POINT_DATA 2601 

VECTORS velocity float
0.000000 0.000000 0
-0.000001 0.000000 0
-0.000003 0.000000 0
-0.000006 0.000000 0
-0.000008 0.000000 0
-0.000007 0.000000 0
-0.000003 0.000000 0
0.000004 0.000000 0
0.000014 0.000000 0
0.000026 0.000000 0
0.000039 0.000000 0
0.000051 0.000000 0
0.000063 0.000000 0
0.000073 0.000000 0
0.000081 0.000000 0
0.000087 0.000000 0
0.000091 0.000000 0
0.000093 0.000000 0
0.000093 0.000000 0
0.000091 0.000000 0
0.000087 0.000000 0
0.000082 0.000000 0
0.000077 0.000000 0
0.000071 0.000000 0
0.000064 0.000000 0
0.000056 0.000000 0
0.000049 0.000000 0
0.000041 0.000000 0
0.000034 0.000000 0
0.000026 0.000000 0
0.000019 0.000000 0
0.000013 0.000000 0
0.000007 0.000000 0
0.000002 0.000000 0
-0.000003 0.000000 0
-0.000006 0.000000 0
-0.000009 0.000000 0
-0.000011 0.000000 0
-0.000012 0.000000 0
-0.000012 0.000000 0
-0.000012 0.000000 0
-0.000011 0.000000 0
-0.000010 0.000000 0
-0.000009 0.000000 0
-0.000008 0.000000 0
-0.000006 0.000000 0
-0.000005 0.000000 0
-0.000003 0.000000 0
-0.000001 0.000000 0
-0.000000 0.000000 0
0.000000 0.000000 0
0.000000 0.000001 0
-0.000335 0.000333 0
-0.001329 0.000706 0
-0.002729 0.000871 0
-0.004189 0.000788 0
-0.005351 0.000477 0
-0.005903 -0.000008 0
-0.005622 -0.000595 0
-0.004391 -0.001205 0
-0.002207 -0.001763 0
0.000836 -0.002210 0
0.004560 -0.002519 0
0.008746 -0.002681 0
0.013162 -0.002699 0
0.017584 -0.002590 0
0.021813 -0.002380 0
0.025693 -0.002098 0
0.029106 -0.001771 0
0.031979 -0.001420 0
0.034275 -0.001064 0
0.035983 -0.000717 0
0.037118 -0.000389 0
0.037711 -0.000085 0
0.037801 0.000191 0
0.037438 0.000442 0
0.036664 0.000667 0
0.035526 0.000864 0
0.034070 0.001034 0
0.032344 0.001176 0
0.030398 0.001287 0
0.028280 0.001369 0
0.026042 0.001419 0
0.023734 0.001438 0
0.021405 0.001428 0
0.019099 0.001391 0
0.016858 0.001331 0
0.014713 0.001254 0
0.012691 0.001163 0
0.010809 0.001066 0
0.009074 0.000968 0
0.007488 0.000872 0
0.006047 0.000782 0
0.004743 0.000698 0
0.003571 0.000618 0
0.002531 0.000536 0
0.001634 0.000444 0
0.000901 0.000334 0
0.000364 0.000202 0
0.000048 0.000061 0
-0.000047 -0.000046 0
0.000000 -0.000000 0
0.000000 0.000003 0
-0.000741 0.001322 0
-0.002521 0.002390 0
-0.004908 0.002856 0
-0.007401 0.002618 0
-0.009481 0.001711 0
-0.010674 0.000267 0
-0.010620 -0.001515 0
-0.009112 -0.003418 0
-0.006096 -0.005230 0
-0.001657 -0.006769 0
0.004002 -0.007911 0
0.010560 -0.008603 0
0.017670 -0.008839 0
0.024968 -0.008651 0
0.032118 -0.008109 0
0.038831 -0.007293 0
0.044876 -0.006286 0
0.050090 -0.005168 0
0.054374 -0.004003 0
0.057683 -0.002843 0
0.060020 -0.001727 0
0.061418 -0.000682 0
0.061936 0.000274 0
0.061655 0.001139 0
0.060655 0.001913 0
0.059019 0.002595 0
0.056830 0.003182 0
0.054171 0.003673 0
0.051126 0.004065 0
0.047780 0.004357 0
0.044218 0.004547 0
0.040521 0.004638 0
0.036767 0.004635 0
0.033029 0.004548 0
0.029372 0.004387 0
0.025847 0.004167 0
0.022496 0.003905 0
0.019349 0.003618 0
0.016420 0.003321 0
0.013716 0.003027 0
0.011233 0.002745 0
0.008965 0.002476 0
0.006907 0.002212 0
0.005064 0.001937 0
0.003454 0.001630 0
0.002110 0.001271 0
0.001075 0.000853 0
0.000387 0.000411 0
0.000051 0.000048 0
0.000000 -0.000001 0
0.000000 0.000007 0
-0.001062 0.002850 0
-0.003499 0.004871 0
-0.006724 0.005750 0
-0.010139 0.005360 0
-0.013140 0.003748 0
-0.015161 0.001130 0
-0.015754 -0.002157 0
-0.014634 -0.005730 0
-0.011692 -0.009219 0
-0.006970 -0.012308 0
-0.000635 -0.014736 0
0.007032 -0.016349 0
0.015627 -0.017107 0
0.024727 -0.017039 0
0.033901 -0.016243 0
0.042749 -0.014855 0
0.050930 -0.013030 0
0.058175 -0.010918 0
0.064296 -0.008657 0
0.069188 -0.006363 0
0.072814 -0.004123 0
0.075193 -0.002001 0
0.076386 -0.000045 0
0.076485 0.001724 0
0.075607 0.003303 0
0.073869 0.004690 0
0.071387 0.005882 0
0.068276 0.006879 0
0.064652 0.007678 0
0.060624 0.008277 0
0.056304 0.008679 0
0.051797 0.008889 0
0.047200 0.008919 0
0.042603 0.008786 0
0.038085 0.008514 0
0.033711 0.008129 0
0.029530 0.007661 0
0.025579 0.007143 0
0.021877 0.006601 0
0.018435 0.006060 0
0.015250 0.005533 0
0.012319 0.005024 0
0.009640 0.004518 0
0.007219 0.003989 0
0.005079 0.003398 0
0.003257 0.002713 0
0.001803 0.001925 0
0.000767 0.001084 0
0.000173 0.000341 0
0.000000 -0.000003 0
0.000000 0.000011 0
-0.001307 0.004818 0
-0.004304 0.008051 0
-0.008292 0.009495 0
-0.012612 0.009033 0
-0.016610 0.006732 0
-0.019664 0.002880 0
-0.021255 -0.002043 0
-0.021035 -0.007480 0
-0.018833 -0.012894 0
-0.014640 -0.017826 0
-0.008570 -0.021914 0
-0.000822 -0.024865 0
0.008286 -0.026534 0
0.018325 -0.026925 0
0.028814 -0.026130 0
0.039279 -0.024322 0
0.049274 -0.021712 0
0.058403 -0.018534 0
0.066364 -0.015016 0
0.072949 -0.011361 0
0.078050 -0.007731 0
0.081642 -0.004254 0
0.083770 -0.001017 0
0.084528 0.001919 0
0.084056 0.004530 0
0.082509 0.006815 0
0.080040 0.008775 0
0.076798 0.010409 0
0.072927 0.011718 0
0.068566 0.012704 0
0.063849 0.013374 0
0.058900 0.013743 0
0.053833 0.013829 0
0.048751 0.013662 0
0.043742 0.013279 0
0.038877 0.012722 0
0.034212 0.012037 0
0.029785 0.011270 0
0.025619 0.010465 0
0.021725 0.009654 0
0.018103 0.008861 0
0.014751 0.008086 0
0.011666 0.007312 0
0.008857 0.006499 0
0.006347 0.005593 0
0.004178 0.004546 0
0.002403 0.003343 0
0.001085 0.002041 0
0.000274 0.000815 0
0.000000 -0.000004 0
0.000000 0.000017 0
-0.001497 0.007151 0
-0.004968 0.011855 0
-0.009648 0.014057 0
-0.014852 0.013677 0
-0.019906 0.010800 0
-0.024155 0.005776 0
-0.027026 -0.000787 0
-0.028096 -0.008153 0
-0.027141 -0.015614 0
-0.024096 -0.022572 0
-0.019012 -0.028554 0
-0.012028 -0.033206 0
-0.003335 -0.036254 0
0.006763 -0.037567 0
0.017846 -0.037197 0
0.029378 -0.035315 0
0.040851 -0.032153 0
0.051741 -0.028007 0
0.061609 -0.023204 0
0.070098 -0.018048 0
0.076973 -0.012815 0
0.082121 -0.007722 0
0.085535 -0.002931 0
0.087293 0.001438 0
0.087535 0.005322 0
0.086461 0.008705 0
0.084269 0.011594 0
0.081147 0.013993 0
0.077278 0.015910 0
0.072833 0.017355 0
0.067968 0.018345 0
0.062831 0.018905 0
0.057551 0.019067 0
0.052241 0.018878 0
0.046997 0.018388 0
0.041893 0.017659 0
0.036988 0.016754 0
0.032321 0.015735 0
0.027917 0.014661 0
0.023784 0.013576 0
0.019924 0.012508 0
0.016335 0.011462 0
0.013015 0.010412 0
0.009972 0.009307 0
0.007229 0.008078 0
0.004830 0.006657 0
0.002833 0.005018 0
0.001313 0.003214 0
0.000345 0.001426 0
0.000000 -0.000006 0
0.000000 0.000023 0
-0.001641 0.009782 0
-0.005495 0.016201 0
-0.010777 0.019378 0
-0.016801 0.019289 0
-0.022903 0.016034 0
-0.028423 0.010000 0
-0.032748 0.001897 0
-0.035387 -0.007365 0
-0.036046 -0.016894 0
-0.034611 -0.025956 0
-0.031073 -0.033981 0
-0.025500 -0.040542 0
-0.018015 -0.045326 0
-0.008774 -0.048106 0
0.001966 -0.048745 0
0.013814 -0.047326 0
0.026212 -0.044075 0
0.038553 -0.039292 0
0.050278 -0.033373 0
0.060843 -0.026724 0
0.069837 -0.019754 0
0.076981 -0.012815 0
0.082156 -0.006189 0
0.085374 -0.000081 0
0.086747 0.005361 0
0.086497 0.010081 0
0.084881 0.014088 0
0.082142 0.017399 0
0.078511 0.020032 0
0.074198 0.022014 0
0.069395 0.023376 0
0.064273 0.024160 0
0.058978 0.024419 0
0.053636 0.024217 0
0.048348 0.023628 0
0.043195 0.022731 0
0.038234 0.021609 0
0.033505 0.020342 0
0.029030 0.019002 0
0.024821 0.017646 0
0.020876 0.016309 0
0.017193 0.014996 0
0.013771 0.013675 0
0.010618 0.012284 0
0.007756 0.010735 0
0.005229 0.008943 0
0.003102 0.006860 0
0.001457 0.004530 0
0.000389 0.002128 0
0.000000 -0.000007 0
0.000000 0.000030 0
-0.001740 0.012643 0
-0.005878 0.020989 0
-0.011639 0.025361 0
-0.018367 0.025803 0
-0.025433 0.022421 0
-0.032193 0.015620 0
-0.038021 0.006176 0
-0.042372 -0.004856 0
-0.044872 -0.016390 0
-0.045353 -0.027545 0
-0.043754 -0.037666 0
-0.040080 -0.046264 0
-0.034376 -0.052980 0
-0.026726 -0.057548 0
-0.017252 -0.059785 0
-0.006137 -0.059560 0
0.006230 -0.056892 0
0.019360 -0.052074 0
0.032531 -0.045494 0
0.045075 -0.037607 0
0.056376 -0.028953 0
0.065926 -0.020041 0
0.073402 -0.011324 0
0.078664 -0.003152 0
0.081745 0.004198 0
0.082799 0.010571 0
0.082158 0.015949 0
0.080135 0.020363 0
0.077022 0.023854 0
0.073085 0.026471 0
0.068559 0.028271 0
0.063648 0.029322 0
0.058521 0.029704 0
0.053319 0.029507 0
0.048153 0.028829 0
0.043105 0.027774 0
0.038237 0.026444 0
0.033587 0.024938 0
0.029178 0.023344 0
0.025019 0.021730 0
0.021110 0.020135 0
0.017447 0.018566 0
0.014030 0.016988 0
0.010867 0.015323 0
0.007979 0.013467 0
0.005412 0.011312 0
0.003233 0.008791 0
0.001531 0.005926 0
0.000413 0.002882 0
0.000000 -0.000008 0
0.000000 0.000036 0
-0.001791 0.015657 0
-0.006107 0.026099 0
-0.012202 0.031866 0
-0.019470 0.033082 0
-0.027340 0.029859 0
-0.035212 0.022588 0
-0.042471 0.012075 0
-0.048540 -0.000514 0
-0.052957 -0.013914 0
-0.055489 -0.027074 0
-0.056045 -0.039254 0
-0.054577 -0.049920 0
-0.051064 -0.058680 0
-0.045508 -0.065230 0
-0.037946 -0.069333 0
-0.028477 -0.070808 0
-0.017241 -0.069572 0
-0.004531 -0.065594 0
0.009115 -0.059088 0
0.023059 -0.050569 0
0.036424 -0.040605 0
0.048503 -0.029841 0
0.058694 -0.018927 0
0.066596 -0.008423 0
0.072056 0.001227 0
0.075078 0.009667 0
0.075966 0.016752 0
0.075111 0.022535 0
0.072889 0.027082 0
0.069639 0.030477 0
0.065653 0.032813 0
0.061179 0.034198 0
0.056419 0.034747 0
0.051533 0.034586 0
0.046647 0.033842 0
0.041850 0.032647 0
0.037207 0.031127 0
0.032758 0.029401 0
0.028528 0.027570 0
0.024525 0.025715 0
0.020751 0.023881 0
0.017202 0.022075 0
0.013878 0.020256 0
0.010788 0.018335 0
0.007955 0.016189 0
0.005421 0.013689 0
0.003256 0.010742 0
0.001551 0.007350 0
0.000422 0.003658 0
0.000000 -0.000009 0
0.000000 0.000042 0
-0.001797 0.018747 0
-0.006180 0.031399 0
-0.012452 0.038724 0
-0.020067 0.040940 0
-0.028525 0.038163 0
-0.037295 0.030751 0
-0.045799 0.019503 0
-0.053450 0.005630 0
-0.059736 -0.009441 0
-0.064312 -0.024457 0
-0.067069 -0.038578 0
-0.067929 -0.051245 0
-0.066827 -0.062049 0
-0.063701 -0.070666 0
-0.058506 -0.076817 0
-0.051239 -0.080265 0
-0.041953 -0.080837 0
-0.030804 -0.078430 0
-0.018003 -0.073083 0
-0.004012 -0.064915 0
0.010473 -0.054396 0
0.024660 -0.042311 0
0.037552 -0.029417 0
0.048468 -0.016514 0
0.056939 -0.004284 0
0.062734 0.006661 0
0.065856 0.015916 0
0.066766 0.023440 0
0.065934 0.029326 0
0.063782 0.033707 0
0.060676 0.036731 0
0.056923 0.038556 0
0.052768 0.039349 0
0.048401 0.039279 0
0.043966 0.038513 0
0.039569 0.037214 0
0.035281 0.035535 0
0.031150 0.033617 0
0.027202 0.031578 0
0.023450 0.029507 0
0.019897 0.027459 0
0.016542 0.025439 0
0.013388 0.023401 0
0.010443 0.021247 0
0.007730 0.018834 0
0.005291 0.016011 0
0.003194 0.012661 0
0.001531 0.008759 0
0.000421 0.004433 0
0.000000 -0.000009 0
0.000000 0.000048 0
-0.001762 0.021835 0
-0.006108 0.036754 0
-0.012399 0.045752 0
-0.020156 0.049154 0
-0.028958 0.047087 0
-0.038359 0.039861 0
-0.047838 0.028230 0
-0.056832 0.013422 0
-0.064811 -0.003052 0
-0.071320 -0.019741 0
-0.076186 -0.035637 0
-0.079335 -0.050162 0
-0.080684 -0.062908 0
-0.080133 -0.073551 0
-0.077579 -0.081794 0
-0.072934 -0.087361 0
-0.066152 -0.090007 0
-0.057258 -0.089543 0
-0.046358 -0.085880 0
-0.033708 -0.079045 0
-0.019617 -0.069277 0
-0.004745 -0.056920 0
0.010040 -0.042735 0
0.023836 -0.027810 0
0.035623 -0.013039 0
0.044815 0.000750 0
0.051097 0.012720 0
0.054545 0.022458 0
0.055756 0.030067 0
0.055240 0.035735 0
0.053459 0.039672 0
0.050792 0.042106 0
0.047541 0.043270 0
0.043937 0.043387 0
0.040157 0.042673 0
0.036327 0.041331 0
0.032536 0.039546 0
0.028840 0.037480 0
0.025278 0.035271 0
0.021866 0.033020 0
0.018616 0.030789 0
0.015530 0.028584 0
0.012614 0.026355 0
0.009877 0.023993 0
0.007344 0.021341 0
0.005053 0.018225 0
0.003069 0.014502 0
0.001482 0.010123 0
0.000412 0.005190 0
0.000000 -0.000009 0
0.000000 0.000053 0
-0.001690 0.024853 0
-0.005908 0.042036 0
-0.012074 0.052771 0
-0.019776 0.057498 0
-0.028676 0.056365 0
-0.038417 0.049630 0
-0.048561 0.037976 0
-0.058591 0.022603 0
-0.067973 0.005046 0
-0.076228 -0.013083 0
-0.083022 -0.030562 0
-0.088307 -0.046747 0
-0.092006 -0.061252 0
-0.094011 -0.073771 0
-0.094187 -0.084015 0
-0.092393 -0.091692 0
-0.088499 -0.096513 0
-0.082417 -0.098223 0
-0.074124 -0.096634 0
-0.063697 -0.091657 0
-0.051319 -0.083359 0
-0.037373 -0.071968 0
-0.022305 -0.057998 0
-0.006968 -0.042096 0
0.007596 -0.025263 0
0.020456 -0.008813 0
0.030702 0.006186 0
0.037639 0.018781 0
0.041733 0.028631 0
0.043548 0.036004 0
0.043663 0.041179 0
0.042554 0.044474 0
0.040586 0.046205 0
0.038053 0.046663 0
0.035176 0.046123 0
0.032113 0.044835 0
0.028980 0.043022 0
0.025855 0.040875 0
0.022788 0.038552 0
0.019813 0.036169 0
0.016947 0.033795 0
0.014204 0.031441 0
0.011591 0.029054 0
0.009124 0.026517 0
0.006824 0.023658 0
0.004728 0.020285 0
0.002896 0.016231 0
0.001413 0.011417 0
0.000398 0.005915 0
0.000000 -0.000009 0
0.000000 0.000056 0
-0.001591 0.027741 0
-0.005603 0.047137 0
-0.011521 0.059619 0
-0.018994 0.065756 0
-0.027762 0.065727 0
-0.037560 0.059746 0
-0.048044 0.048404 0
-0.058765 0.032834 0
-0.069216 0.014584 0
-0.078925 -0.004692 0
-0.087435 -0.023558 0
-0.094638 -0.041178 0
-0.100494 -0.057205 0
-0.104913 -0.071369 0
-0.107761 -0.083412 0
-0.108865 -0.093050 0
-0.108045 -0.099983 0
-0.105126 -0.103918 0
-0.099970 -0.104601 0
-0.092500 -0.101850 0
-0.082730 -0.095601 0
-0.070806 -0.085934 0
-0.057015 -0.073139 0
-0.041905 -0.057711 0
-0.026106 -0.040463 0
-0.010614 -0.022356 0
0.003398 -0.004464 0
0.014898 0.011427 0
0.022944 0.024159 0
0.027978 0.033805 0
0.030735 0.040666 0
0.031796 0.045183 0
0.031603 0.047770 0
0.030533 0.048798 0
0.028872 0.048614 0
0.026826 0.047527 0
0.024551 0.045804 0
0.022156 0.043672 0
0.019717 0.041312 0
0.017285 0.038861 0
0.014896 0.036398 0
0.012574 0.033940 0
0.010336 0.031435 0
0.008199 0.028760 0
0.006187 0.025736 0
0.004332 0.022153 0
0.002686 0.017817 0
0.001330 0.012621 0
0.000382 0.006603 0
0.000000 -0.000009 0
0.000000 0.000059 0
-0.001471 0.030454 0
-0.005219 0.051966 0
-0.010790 0.066162 0
-0.017892 0.073739 0
-0.026330 0.074930 0
-0.035930 0.069912 0
-0.046446 0.059181 0
-0.057515 0.043775 0
-0.068681 0.025206 0
-0.079472 0.005136 0
-0.089467 -0.014850 0
-0.098337 -0.033689 0
-0.106103 -0.050977 0
-0.112718 -0.066504 0
-0.118065 -0.080063 0
-0.121974 -0.091408 0
-0.124234 -0.100253 0
-0.124617 -0.106298 0
-0.122897 -0.109259 0
-0.118879 -0.108897 0
-0.112418 -0.105053 0
-0.103463 -0.097683 0
-0.092083 -0.086899 0
-0.078533 -0.073005 0
-0.063248 -0.056553 0
-0.046978 -0.038316 0
-0.030580 -0.019327 0
-0.015092 -0.000765 0
-0.002145 0.015552 0
0.007293 0.028214 0
0.013751 0.037361 0
0.017817 0.043607 0
0.020056 0.047468 0
0.020974 0.049394 0
0.020944 0.049830 0
0.020243 0.049156 0
0.019084 0.047693 0
0.017624 0.045710 0
0.015977 0.043422 0
0.014224 0.040989 0
0.012424 0.038506 0
0.010617 0.036002 0
0.008833 0.033429 0
0.007098 0.030665 0
0.005433 0.027526 0
0.003867 0.023787 0
0.002444 0.019233 0
0.001237 0.013720 0
0.000366 0.007245 0
0.000000 -0.000008 0
0.000000 0.000061 0
-0.001337 0.032958 0
-0.004779 0.056456 0
-0.009934 0.072292 0
-0.016556 0.081295 0
-0.024509 0.083765 0
-0.033697 0.079862 0
-0.043971 0.069989 0
-0.055065 0.055068 0
-0.066590 0.036541 0
-0.078110 0.016094 0
-0.089241 -0.004693 0
-0.099547 -0.024542 0
-0.108965 -0.042824 0
-0.117511 -0.059408 0
-0.125115 -0.074156 0
-0.131627 -0.086881 0
-0.136831 -0.097340 0
-0.140471 -0.105254 0
-0.142265 -0.110338 0
-0.141931 -0.112329 0
-0.139208 -0.111017 0
-0.133884 -0.106270 0
-0.125831 -0.098069 0
-0.115055 -0.086545 0
-0.101730 -0.072018 0
-0.086274 -0.055023 0
-0.069323 -0.036349 0
-0.051808 -0.017008 0
-0.034800 0.001774 0
-0.020082 0.017909 0
-0.008853 0.030142 0
-0.000696 0.038879 0
0.004948 0.044614 0
0.008630 0.047910 0
0.010827 0.049344 0
0.011931 0.049387 0
0.012249 0.048423 0
0.012009 0.046779 0
0.011380 0.044712 0
0.010486 0.042415 0
0.009422 0.040006 0
0.008253 0.037530 0
0.007029 0.034953 0
0.005783 0.032160 0
0.004539 0.028967 0
0.003322 0.025142 0
0.002166 0.020447 0
0.001136 0.014699 0
0.000351 0.007840 0
0.000000 -0.000007 0
0.000000 0.000062 0
-0.001195 0.035232 0
-0.004307 0.060562 0
-0.008999 0.077938 0
-0.015068 0.088313 0
-0.022423 0.092071 0
-0.031033 0.089374 0
-0.040841 0.080549 0
-0.051677 0.066393 0
-0.063238 0.048251 0
-0.075139 0.027787 0
-0.087004 0.006588 0
-0.098504 -0.013965 0
-0.109313 -0.033014 0
-0.119509 -0.050354 0
-0.129085 -0.065947 0
-0.137928 -0.079692 0
-0.145837 -0.091409 0
-0.152546 -0.100864 0
-0.157744 -0.107798 0
-0.161096 -0.111954 0
-0.162258 -0.113100 0
-0.160909 -0.111059 0
-0.156772 -0.105727 0
-0.149655 -0.097105 0
-0.139492 -0.085334 0
-0.126396 -0.070723 0
-0.110703 -0.053792 0
-0.093022 -0.035288 0
-0.074223 -0.016173 0
-0.055456 0.002267 0
-0.038785 0.017975 0
-0.025507 0.029806 0
-0.015340 0.038142 0
-0.007870 0.043515 0
-0.002569 0.046529 0
0.001052 0.047734 0
0.003405 0.047615 0
0.004819 0.046579 0
0.005546 0.044945 0
0.005780 0.042947 0
0.005668 0.040739 0
0.005315 0.038395 0
0.004795 0.035899 0
0.004160 0.033155 0
0.003440 0.029986 0
0.002655 0.026160 0
0.001830 0.021419 0
0.001017 0.015535 0
0.000336 0.008381 0
0.000000 -0.000006 0
0.000000 0.000062 0
-0.001051 0.037264 0
-0.003821 0.064260 0
-0.008028 0.083053 0
-0.013502 0.094719 0
-0.020188 0.099731 0
-0.028104 0.098279 0
-0.037272 0.090632 0
-0.047617 0.077465 0
-0.058928 0.060002 0
-0.070881 0.039860 0
-0.083137 0.018672 0
-0.095434 -0.002233 0
-0.107421 -0.021819 0
-0.118997 -0.039635 0
-0.130244 -0.055737 0
-0.141106 -0.070130 0
-0.151411 -0.082722 0
-0.160902 -0.093347 0
-0.169256 -0.101788 0
-0.176109 -0.107815 0
-0.181070 -0.111203 0
-0.183748 -0.111755 0
-0.183766 -0.109323 0
-0.180798 -0.103825 0
-0.174600 -0.095276 0
-0.165052 -0.083811 0
-0.152203 -0.069723 0
-0.136326 -0.053488 0
-0.117962 -0.035792 0
-0.097933 -0.017529 0
-0.077469 0.000194 0
-0.058661 0.015435 0
-0.042968 0.026977 0
-0.030560 0.035139 0
-0.021015 0.040423 0
-0.013870 0.043413 0
-0.008638 0.044656 0
-0.004889 0.044638 0
-0.002259 0.043751 0
-0.000463 0.042293 0
0.000722 0.040471 0
0.001462 0.038403 0
0.001875 0.036107 0
0.002039 0.033515 0
0.001999 0.030472 0
0.001775 0.026753 0
0.001381 0.022085 0
0.000858 0.016192 0
0.000317 0.008857 0
0.000000 -0.000004 0
0.000000 0.000062 0
-0.000908 0.039052 0
-0.003338 0.067539 0
-0.007054 0.087618 0
-0.011919 0.100473 0
-0.017901 0.106673 0
-0.025055 0.106458 0
-0.033463 0.100062 0
-0.043141 0.088050 0
-0.053968 0.071514 0
-0.065693 0.051995 0
-0.078020 0.031141 0
-0.090705 0.010319 0
-0.103566 -0.009451 0
-0.116280 -0.027530 0
-0.128904 -0.043838 0
-0.141456 -0.058525 0
-0.153811 -0.071612 0
-0.165732 -0.083019 0
-0.176901 -0.092591 0
-0.186942 -0.100139 0
-0.195441 -0.105461 0
-0.201965 -0.108363 0
-0.206083 -0.108676 0
-0.207386 -0.106270 0
-0.205516 -0.101079 0
-0.200200 -0.093120 0
-0.191282 -0.082517 0
-0.178769 -0.069527 0
-0.162883 -0.054566 0
-0.144103 -0.038226 0
-0.123196 -0.021297 0
-0.101251 -0.004695 0
-0.080341 0.010041 0
-0.062014 0.021563 0
-0.047040 0.029840 0
-0.035128 0.035356 0
-0.025851 0.038633 0
-0.018750 0.040200 0
-0.013358 0.040519 0
-0.009298 0.039966 0
-0.006246 0.038814 0
-0.003950 0.037241 0
-0.002228 0.035322 0
-0.000955 0.033031 0
-0.000058 0.030250 0
0.000492 0.026777 0
0.000704 0.022336 0
0.000600 0.016599 0
0.000279 0.009239 0
0.000000 -0.000003 0
0.000000 0.000060 0
-0.000770 0.040600 0
-0.002869 0.070405 0
-0.006106 0.091634 0
-0.010370 0.105566 0
-0.015644 0.112866 0
-0.022007 0.113841 0
-0.029586 0.108717 0
-0.038473 0.097970 0
-0.048636 0.082555 0
-0.059903 0.063912 0
-0.072020 0.043684 0
-0.084771 0.023313 0
-0.098044 0.003756 0
-0.111663 -0.014297 0
-0.125385 -0.030561 0
-0.139300 -0.045222 0
-0.153344 -0.058446 0
-0.167310 -0.070256 0
-0.180897 -0.080578 0
-0.193731 -0.089274 0
-0.205391 -0.096179 0
-0.215427 -0.101112 0
-0.223377 -0.103901 0
-0.228788 -0.104391 0
-0.231237 -0.102461 0
-0.230359 -0.098046 0
-0.225875 -0.091154 0
-0.217623 -0.081886 0
-0.205597 -0.070458 0
-0.189980 -0.057216 0
-0.171191 -0.042657 0
-0.149923 -0.027419 0
-0.127117 -0.012260 0
-0.104490 0.001838 0
-0.083675 0.013537 0
-0.065769 0.022224 0
-0.051099 0.028278 0
-0.039297 0.032145 0
-0.029904 0.034300 0
-0.022506 0.035181 0