# vtk DataFile Version 2.0
generated by CFD-lab course output (written by Tobias Neckel) 
ASCII

DATASET STRUCTURED_GRID
DIMENSIONS  51 51 1 
POINTS 2601 float

0.000000 0.000000 0
0.020000 0.000000 0
0.040000 0.000000 0
0.060000 0.000000 0
0.080000 0.000000 0
0.100000 0.000000 0
0.120000 0.000000 0
0.140000 0.000000 0
0.160000 0.000000 0
0.180000 0.000000 0
0.200000 0.000000 0
0.220000 0.000000 0
0.240000 0.000000 0
0.260000 0.000000 0
0.280000 0.000000 0
0.300000 0.000000 0
0.320000 0.000000 0
0.340000 0.000000 0
0.360000 0.000000 0
0.380000 0.000000 0
0.400000 0.000000 0
0.420000 0.000000 0
0.440000 0.000000 0
0.460000 0.000000 0
0.480000 0.000000 0
0.500000 0.000000 0
0.520000 0.000000 0
0.540000 0.000000 0
0.560000 0.000000 0
0.580000 0.000000 0
0.600000 0.000000 0
0.620000 0.000000 0
0.640000 0.000000 0
0.660000 0.000000 0
0.680000 0.000000 0
0.700000 0.000000 0
0.720000 0.000000 0
0.740000 0.000000 0
0.760000 0.000000 0
0.780000 0.000000 0
0.800000 0.000000 0
0.820000 0.000000 0
0.840000 0.000000 0
0.860000 0.000000 0
0.880000 0.000000 0
0.900000 0.000000 0
0.920000 0.000000 0
0.940000 0.000000 0
0.960000 0.000000 0
0.980000 0.000000 0
1.000000 0.000000 0
0.000000 0.020000 0
0.020000 0.020000 0
0.040000 0.020000 0
0.060000 0.020000 0
0.080000 0.020000 0
0.100000 0.020000 0
0.120000 0.020000 0
0.140000 0.020000 0
0.160000 0.020000 0
0.180000 0.020000 0
0.200000 0.020000 0
0.220000 0.020000 0
0.240000 0.020000 0
0.260000 0.020000 0
0.280000 0.020000 0
0.300000 0.020000 0
0.320000 0.020000 0
0.340000 0.020000 0
0.360000 0.020000 0
0.380000 0.020000 0
0.400000 0.020000 0
0.420000 0.020000 0
0.440000 0.020000 0
0.460000 0.020000 0
0.480000 0.020000 0
0.500000 0.020000 0
0.520000 0.020000 0
0.540000 0.020000 0
0.560000 0.020000 0
0.580000 0.020000 0
0.600000 0.020000 0
0.620000 0.020000 0
0.640000 0.020000 0
0.660000 0.020000 0
0.680000 0.020000 0
0.700000 0.020000 0
0.720000 0.020000 0
0.740000 0.020000 0
0.760000 0.020000 0
0.780000 0.020000 0
0.800000 0.020000 0
0.820000 0.020000 0
0.840000 0.020000 0
0.860000 0.020000 0
0.880000 0.020000 0
0.900000 0.020000 0
0.920000 0.020000 0
0.940000 0.020000 0
0.960000 0.020000 0
0.980000 0.020000 0
1.000000 0.020000 0
0.000000 0.040000 0
0.020000 0.040000 0
0.040000 0.040000 0
0.060000 0.040000 0
0.080000 0.040000 0
0.100000 0.040000 0
0.120000 0.040000 0
0.140000 0.040000 0
0.160000 0.040000 0
0.180000 0.040000 0
0.200000 0.040000 0
0.220000 0.040000 0
0.240000 0.040000 0
0.260000 0.040000 0
0.280000 0.040000 0
0.300000 0.040000 0
0.320000 0.040000 0
0.340000 0.040000 0
0.360000 0.040000 0
0.380000 0.040000 0
0.400000 0.040000 0
0.420000 0.040000 0
0.440000 0.040000 0
0.460000 0.040000 0
0.480000 0.040000 0
0.500000 0.040000 0
0.520000 0.040000 0
0.540000 0.040000 0
0.560000 0.040000 0
0.580000 0.040000 0
0.600000 0.040000 0
0.620000 0.040000 0
0.640000 0.040000 0
0.660000 0.040000 0
0.680000 0.040000 0
0.700000 0.040000 0
0.720000 0.040000 0
0.740000 0.040000 0
0.760000 0.040000 0
0.780000 0.040000 0
0.800000 0.040000 0
0.820000 0.040000 0
0.840000 0.040000 0
0.860000 0.040000 0
0.880000 0.040000 0
0.900000 0.040000 0
0.920000 0.040000 0
0.940000 0.040000 0
0.960000 0.040000 0
0.980000 0.040000 0
1.000000 0.040000 0
0.000000 0.060000 0
0.020000 0.060000 0
0.040000 0.060000 0
0.060000 0.060000 0
0.080000 0.060000 0
0.100000 0.060000 0
0.120000 0.060000 0
0.140000 0.060000 0
0.160000 0.060000 0
0.180000 0.060000 0
0.200000 0.060000 0
0.220000 0.060000 0
0.240000 0.060000 0
0.260000 0.060000 0
0.280000 0.060000 0
0.300000 0.060000 0
0.320000 0.060000 0
0.340000 0.060000 0
0.360000 0.060000 0
0.380000 0.060000 0
0.400000 0.060000 0
0.420000 0.060000 0
0.440000 0.060000 0
0.460000 0.060000 0
0.480000 0.060000 0
0.500000 0.060000 0
0.520000 0.060000 0
0.540000 0.060000 0
0.560000 0.060000 0
0.580000 0.060000 0
0.600000 0.060000 0
0.620000 0.060000 0
0.640000 0.060000 0
0.660000 0.060000 0
0.680000 0.060000 0
0.700000 0.060000 0
0.720000 0.060000 0
0.740000 0.060000 0
0.760000 0.060000 0
0.780000 0.060000 0
0.800000 0.060000 0
0.820000 0.060000 0
0.840000 0.060000 0
0.860000 0.060000 0
0.880000 0.060000 0
0.900000 0.060000 0
0.920000 0.060000 0
0.940000 0.060000 0
0.960000 0.060000 0
0.980000 0.060000 0
1.000000 0.060000 0
0.000000 0.080000 0
0.020000 0.080000 0
0.040000 0.080000 0
0.060000 0.080000 0
0.080000 0.080000 0
0.100000 0.080000 0
0.120000 0.080000 0
0.140000 0.080000 0
0.160000 0.080000 0
0.180000 0.080000 0
0.200000 0.080000 0
0.220000 0.080000 0
0.240000 0.080000 0
0.260000 0.080000 0
0.280000 0.080000 0
0.300000 0.080000 0
0.320000 0.080000 0
0.340000 0.080000 0
0.360000 0.080000 0
0.380000 0.080000 0
0.400000 0.080000 0
0.420000 0.080000 0
0.440000 0.080000 0
0.460000 0.080000 0
0.480000 0.080000 0
0.500000 0.080000 0
0.520000 0.080000 0
0.540000 0.080000 0
0.560000 0.080000 0
0.580000 0.080000 0
0.600000 0.080000 0
0.620000 0.080000 0
0.640000 0.080000 0
0.660000 0.080000 0
0.680000 0.080000 0
0.700000 0.080000 0
0.720000 0.080000 0
0.740000 0.080000 0
0.760000 0.080000 0
0.780000 0.080000 0
0.800000 0.080000 0
0.820000 0.080000 0
0.840000 0.080000 0
0.860000 0.080000 0
0.880000 0.080000 0
0.900000 0.080000 0
0.920000 0.080000 0
0.940000 0.080000 0
0.960000 0.080000 0
0.980000 0.080000 0
1.000000 0.080000 0
0.000000 0.100000 0
0.020000 0.100000 0
0.040000 0.100000 0
0.060000 0.100000 0
0.080000 0.100000 0
0.100000 0.100000 0
0.120000 0.100000 0
0.140000 0.100000 0
0.160000 0.100000 0
0.180000 0.100000 0
0.200000 0.100000 0
0.220000 0.100000 0
0.240000 0.100000 0
0.260000 0.100000 0
0.280000 0.100000 0
0.300000 0.100000 0
0.320000 0.100000 0
0.340000 0.100000 0
0.360000 0.100000 0
0.380000 0.100000 0
0.400000 0.100000 0
0.420000 0.100000 0
0.440000 0.100000 0
0.460000 0.100000 0
0.480000 0.100000 0
0.500000 0.100000 0
0.520000 0.100000 0
0.540000 0.100000 0
0.560000 0.100000 0
0.580000 0.100000 0
0.600000 0.100000 0
0.620000 0.100000 0
0.640000 0.100000 0
0.660000 0.100000 0
0.680000 0.100000 0
0.700000 0.100000 0
0.720000 0.100000 0
0.740000 0.100000 0
0.760000 0.100000 0
0.780000 0.100000 0
0.800000 0.100000 0
0.820000 0.100000 0
0.840000 0.100000 0
0.860000 0.100000 0
0.880000 0.100000 0
0.900000 0.100000 0
0.920000 0.100000 0
0.940000 0.100000 0
0.960000 0.100000 0
0.980000 0.100000 0
1.000000 0.100000 0
0.000000 0.120000 0
0.020000 0.120000 0
0.040000 0.120000 0
0.060000 0.120000 0
0.080000 0.120000 0
0.100000 0.120000 0
0.120000 0.120000 0
0.140000 0.120000 0
0.160000 0.120000 0
0.180000 0.120000 0
0.200000 0.120000 0
0.220000 0.120000 0
0.240000 0.120000 0
0.260000 0.120000 0
0.280000 0.120000 0
0.300000 0.120000 0
0.320000 0.120000 0
0.340000 0.120000 0
0.360000 0.120000 0
0.380000 0.120000 0
0.400000 0.120000 0
0.420000 0.120000 0
0.440000 0.120000 0
0.460000 0.120000 0
0.480000 0.120000 0
0.500000 0.120000 0
0.520000 0.120000 0
0.540000 0.120000 0
0.560000 0.120000 0
0.580000 0.120000 0
0.600000 0.120000 0
0.620000 0.120000 0
0.640000 0.120000 0
0.660000 0.120000 0
0.680000 0.120000 0
0.700000 0.120000 0
0.720000 0.120000 0
0.740000 0.120000 0
0.760000 0.120000 0
0.780000 0.120000 0
0.800000 0.120000 0
0.820000 0.120000 0
0.840000 0.120000 0
0.860000 0.120000 0
0.880000 0.120000 0
0.900000 0.120000 0
0.920000 0.120000 0
0.940000 0.120000 0
0.960000 0.120000 0
0.980000 0.120000 0
1.000000 0.120000 0
0.000000 0.140000 0
0.020000 0.140000 0
0.040000 0.140000 0
0.060000 0.140000 0
0.080000 0.140000 0
0.100000 0.140000 0
0.120000 0.140000 0
0.140000 0.140000 0
0.160000 0.140000 0
0.180000 0.140000 0
0.200000 0.140000 0
0.220000 0.140000 0
0.240000 0.140000 0
0.260000 0.140000 0
0.280000 0.140000 0
0.300000 0.140000 0
0.320000 0.140000 0
0.340000 0.140000 0
0.360000 0.140000 0
0.380000 0.140000 0
0.400000 0.140000 0
0.420000 0.140000 0
0.440000 0.140000 0
0.460000 0.140000 0
0.480000 0.140000 0
0.500000 0.140000 0
0.520000 0.140000 0
0.540000 0.140000 0
0.560000 0.140000 0
0.580000 0.140000 0
0.600000 0.140000 0
0.620000 0.140000 0
0.640000 0.140000 0
0.660000 0.140000 0
0.680000 0.140000 0
0.700000 0.140000 0
0.720000 0.140000 0
0.740000 0.140000 0
0.760000 0.140000 0
0.780000 0.140000 0
0.800000 0.140000 0
0.820000 0.140000 0
0.840000 0.140000 0
0.860000 0.140000 0
0.880000 0.140000 0
0.900000 0.140000 0
0.920000 0.140000 0
0.940000 0.140000 0
0.960000 0.140000 0
0.980000 0.140000 0
1.000000 0.140000 0
0.000000 0.160000 0
0.020000 0.160000 0
0.040000 0.160000 0
0.060000 0.160000 0
0.080000 0.160000 0
0.100000 0.160000 0
0.120000 0.160000 0
0.140000 0.160000 0
0.160000 0.160000 0
0.180000 0.160000 0
0.200000 0.160000 0
0.220000 0.160000 0
0.240000 0.160000 0
0.260000 0.160000 0
0.280000 0.160000 0
0.300000 0.160000 0
0.320000 0.160000 0
0.340000 0.160000 0
0.360000 0.160000 0
0.380000 0.160000 0
0.400000 0.160000 0
0.420000 0.160000 0
0.440000 0.160000 0
0.460000 0.160000 0
0.480000 0.160000 0
0.500000 0.160000 0
0.520000 0.160000 0
0.540000 0.160000 0
0.560000 0.160000 0
0.580000 0.160000 0
0.600000 0.160000 0
0.620000 0.160000 0
0.640000 0.160000 0
0.660000 0.160000 0
0.680000 0.160000 0
0.700000 0.160000 0
0.720000 0.160000 0
0.740000 0.160000 0
0.760000 0.160000 0
0.780000 0.160000 0
0.800000 0.160000 0
0.820000 0.160000 0
0.840000 0.160000 0
0.860000 0.160000 0
0.880000 0.160000 0
0.900000 0.160000 0
0.920000 0.160000 0
0.940000 0.160000 0
0.960000 0.160000 0
0.980000 0.160000 0
1.000000 0.160000 0
0.000000 0.180000 0
0.020000 0.180000 0
0.040000 0.180000 0
0.060000 0.180000 0
0.080000 0.180000 0
0.100000 0.180000 0
0.120000 0.180000 0
0.140000 0.180000 0
0.160000 0.180000 0
0.180000 0.180000 0
0.200000 0.180000 0
0.220000 0.180000 0
0.240000 0.180000 0
0.260000 0.180000 0
0.280000 0.180000 0
0.300000 0.180000 0
0.320000 0.180000 0
0.340000 0.180000 0
0.360000 0.180000 0
0.380000 0.180000 0
0.400000 0.180000 0
0.420000 0.180000 0
0.440000 0.180000 0
0.460000 0.180000 0
0.480000 0.180000 0
0.500000 0.180000 0
0.520000 0.180000 0
0.540000 0.180000 0
0.560000 0.180000 0
0.580000 0.180000 0
0.600000 0.180000 0
0.620000 0.180000 0
[...]
POINT_DATA 2601 

VECTORS velocity float
0.000000 0.000000 0
-0.000000 0.000000 0
-0.000001 0.000000 0
-0.000003 0.000000 0
-0.000003 0.000000 0
-0.000004 0.000000 0
-0.000003 0.000000 0
-0.000003 0.000000 0
-0.000001 0.000000 0
0.000000 0.000000 0
0.000002 0.000000 0
0.000005 0.000000 0
0.000007 0.000000 0
0.000009 0.000000 0
0.000010 0.000000 0
0.000011 0.000000 0
0.000011 0.000000 0
0.000011 0.000000 0
0.000010 0.000000 0
0.000009 0.000000 0
0.000008 0.000000 0
0.000006 0.000000 0
0.000004 0.000000 0
0.000002 0.000000 0
-0.000000 0.000000 0
-0.000002 0.000000 0
-0.000004 0.000000 0
-0.000006 0.000000 0
-0.000008 0.000000 0
-0.000009 0.000000 0
-0.000009 0.000000 0
-0.000009 0.000000 0
-0.000009 0.000000 0
-0.000008 0.000000 0
-0.000007 0.000000 0
-0.000006 0.000000 0
-0.000004 0.000000 0
-0.000003 0.000000 0
-0.000003 0.000000 0
-0.000002 0.000000 0
-0.000001 0.000000 0
-0.000001 0.000000 0
-0.000000 0.000000 0
0.000000 0.000000 0
0.000000 0.000000 0
0.000001 0.000000 0
0.000001 0.000000 0
0.000000 0.000000 0
0.000000 0.000000 0
0.000000 0.000000 0
0.000000 0.000000 0
0.000000 0.000000 0
-0.001037 0.001023 0
-0.003716 0.001771 0
-0.006769 0.001604 0
-0.008888 0.000655 0
-0.009202 -0.000714 0
-0.007348 -0.002179 0
-0.003312 -0.003527 0
0.002713 -0.004640 0
0.010373 -0.005460 0
0.019235 -0.005938 0
0.028789 -0.006050 0
0.038506 -0.005805 0
0.047846 -0.005246 0
0.056325 -0.004441 0
0.063539 -0.003476 0
0.069210 -0.002439 0
0.073188 -0.001411 0
0.075452 -0.000457 0
0.076092 0.000396 0
0.075283 0.001150 0
0.073196 0.001809 0
0.070004 0.002380 0
0.065876 0.002862 0
0.060984 0.003254 0
0.055502 0.003547 0
0.049611 0.003732 0
0.043499 0.003801 0
0.037357 0.003752 0
0.031369 0.003589 0
0.025702 0.003325 0
0.020497 0.002983 0
0.015855 0.002591 0
0.011838 0.002178 0
0.008463 0.001771 0
0.005712 0.001391 0
0.003536 0.001055 0
0.001869 0.000770 0
0.000636 0.000535 0
-0.000240 0.000349 0
-0.000828 0.000203 0
-0.001186 0.000091 0
-0.001363 0.000004 0
-0.001396 -0.000064 0
-0.001314 -0.000120 0
-0.001139 -0.000163 0
-0.000894 -0.000192 0
-0.000607 -0.000199 0
-0.000321 -0.000170 0
-0.000094 -0.000095 0
0.000000 0.000000 0
0.000000 0.000001 0
-0.002096 0.003713 0
-0.006684 0.005730 0
-0.011816 0.005171 0
-0.015658 0.002431 0
-0.016979 -0.001541 0
-0.015245 -0.005891 0
-0.010384 -0.010063 0
-0.002560 -0.013687 0
0.007899 -0.016523 0
0.020491 -0.018417 0
0.034608 -0.019272 0
0.049598 -0.019058 0
0.064699 -0.017819 0
0.079155 -0.015694 0
0.092221 -0.012886 0
0.103265 -0.009648 0
0.111805 -0.006242 0
0.117563 -0.002904 0
0.120466 0.000169 0
0.120652 0.002896 0
0.118426 0.005279 0
0.114127 0.007320 0
0.108097 0.009020 0
0.100671 0.010374 0
0.092182 0.011373 0
0.082959 0.012002 0
0.073328 0.012254 0
0.063601 0.012130 0
0.054071 0.011655 0
0.044995 0.010872 0
0.036588 0.009847 0
0.029008 0.008658 0
0.022356 0.007392 0
0.016671 0.006125 0
0.011942 0.004926 0
0.008112 0.003842 0
0.005093 0.002900 0
0.002781 0.002109 0
0.001067 0.001463 0
-0.000153 0.000945 0
-0.000970 0.000535 0
-0.001463 0.000211 0
-0.001693 -0.000049 0
-0.001709 -0.000258 0
-0.001554 -0.000421 0
-0.001268 -0.000532 0
-0.000896 -0.000573 0
-0.000502 -0.000513 0
-0.000166 -0.000321 0
0.000000 0.000000 0
0.000000 0.000003 0
-0.002872 0.007705 0
-0.009006 0.011490 0
-0.015988 0.010577 0
-0.021718 0.005817 0
-0.024822 -0.001127 0
-0.024714 -0.008774 0
-0.021326 -0.016213 0
-0.014796 -0.022924 0
-0.005309 -0.028511 0
0.006861 -0.032648 0
0.021353 -0.035157 0
0.037635 -0.035896 0
0.055050 -0.034803 0
0.072852 -0.031964 0
0.090137 -0.027586 0
0.106002 -0.022023 0
0.119564 -0.015709 0
0.130114 -0.009118 0
0.137171 -0.002693 0
0.140533 0.003191 0
0.140349 0.008333 0
0.137091 0.012708 0
0.131264 0.016318 0
0.123373 0.019168 0
0.113912 0.021258 0
0.103357 0.022585 0
0.092157 0.023159 0
0.080727 0.023009 0
0.069436 0.022195 0
0.058601 0.020808 0
0.048476 0.018970 0
0.039254 0.016823 0
0.031059 0.014514 0
0.023951 0.012184 0
0.017932 0.009951 0
0.012957 0.007904 0
0.008941 0.006100 0
0.005778 0.004561 0
0.003351 0.003283 0
0.001544 0.002241 0
0.000251 0.001402 0
-0.000620 0.000727 0
-0.001143 0.000182 0
-0.001380 -0.000258 0
-0.001385 -0.000605 0
-0.001206 -0.000850 0
-0.000897 -0.000965 0
-0.000526 -0.000900 0
-0.000183 -0.000596 0
0.000000 0.000000 0
0.000000 0.000004 0
-0.003409 0.012718 0
-0.010782 0.018846 0
-0.019451 0.017882 0
-0.027177 0.011265 0
-0.032515 0.001455 0
-0.034826 -0.009388 0
-0.034050 -0.019981 0
-0.030320 -0.029704 0
-0.023764 -0.038180 0
-0.014448 -0.045079 0
-0.002453 -0.050046 0
0.012019 -0.052755 0
0.028653 -0.053036 0
0.046870 -0.050781 0
0.065906 -0.046036 0
0.084865 -0.039075 0
0.102636 -0.030354 0
0.118156 -0.020511 0
0.130436 -0.010250 0
0.138770 -0.000283 0
0.142785 0.008720 0
0.142665 0.016404 0
0.139035 0.022737 0
0.132549 0.027726 0
0.123866 0.031388 0
0.113617 0.033757 0
0.102383 0.034883 0
0.090682 0.034851 0
0.078956 0.033781 0
0.067572 0.031831 0
0.056817 0.029193 0
0.046907 0.026076 0
0.037987 0.022695 0
0.030138 0.019251 0
0.023382 0.015920 0
0.017690 0.012833 0
0.012997 0.010079 0
0.009207 0.007699 0
0.006212 0.005697 0
0.003899 0.004046 0
0.002159 0.002699 0
0.000896 0.001604 0
0.000030 0.000712 0
-0.000506 -0.000016 0
-0.000767 -0.000595 0
-0.000802 -0.001020 0
-0.000665 -0.001253 0
-0.000421 -0.001227 0
-0.000156 -0.000847 0
0.000000 0.000001 0
0.000000 0.000006 0
-0.003739 0.018486 0
-0.012006 0.027531 0
-0.022068 0.026972 0
-0.031644 0.018881 0
-0.039234 0.006522 0
-0.044130 -0.007239 0
-0.046204 -0.020718 0
-0.045590 -0.033210 0
-0.042381 -0.044384 0
-0.036609 -0.053960 0
-0.028254 -0.061624 0
-0.017275 -0.067002 0
-0.003688 -0.069655 0
0.012299 -0.069217 0
0.030354 -0.065582 0
0.049730 -0.058753 0
0.069462 -0.049000 0
0.088466 -0.036918 0
0.105411 -0.023307 0
0.119136 -0.009159 0
0.128683 0.004438 0
0.133413 0.016458 0
0.133703 0.026434 0
0.130272 0.034337 0
0.123913 0.040189 0
0.115404 0.044067 0
0.105455 0.046093 0
0.094685 0.046435 0
0.083612 0.045305 0
0.072652 0.042947 0
0.062128 0.039635 0
0.052282 0.035652 0
0.043283 0.031283 0
0.035233 0.026789 0
0.028182 0.022399 0
0.022127 0.018289 0
0.017028 0.014583 0
0.012813 0.011345 0
0.009390 0.008591 0
0.006658 0.006294 0
0.004517 0.004404 0
0.002872 0.002856 0
0.001643 0.001584 0
0.000765 0.000538 0
0.000184 -0.000309 0
-0.000143 -0.000951 0
-0.000260 -0.001346 0
-0.000221 -0.001410 0
-0.000097 -0.001017 0
0.000000 0.000001 0
0.000000 0.000007 0
-0.003873 0.024722 0
-0.012646 0.037175 0
-0.023688 0.037520 0
-0.034759 0.028430 0
-0.044320 0.013940 0
-0.051582 -0.002417 0
-0.056284 -0.018522 0
-0.058543 -0.033527 0
-0.058461 -0.047162 0
-0.056063 -0.059206 0
-0.051314 -0.069380 0
-0.044152 -0.077321 0
-0.034504 -0.082610 0
-0.022282 -0.084824 0
-0.007496 -0.083467 0
0.009571 -0.078184 0
0.028509 -0.069090 0
0.048383 -0.056460 0
0.067920 -0.040919 0
0.085856 -0.023555 0
0.100741 -0.005557 0
0.111332 0.011384 0
0.116798 0.025878 0
0.117761 0.037515 0
0.115068 0.046255 0
0.109580 0.052215 0
0.102107 0.055602 0
0.093353 0.056694 0
0.083903 0.055814 0
0.074224 0.053315 0
0.064680 0.049562 0
0.055543 0.044921 0
0.047013 0.039743 0
0.039225 0.034352 0
0.032259 0.029026 0
0.026147 0.023987 0
0.020882 0.019393 0
0.016423 0.015337 0
0.012703 0.011852 0
0.009642 0.008919 0
0.007152 0.006485 0
0.005149 0.004477 0
0.003557 0.002819 0
0.002316 0.001443 0
0.001376 0.000312 0
0.000705 -0.000576 0
0.000273 -0.001175 0
0.000048 -0.001390 0
-0.000018 -0.001068 0
0.000000 0.000001 0
0.000000 0.000008 0
-0.003826 0.031131 0
-0.012711 0.047345 0
-0.024262 0.049084 0
-0.036371 0.039512 0
-0.047480 0.023345 0
-0.056707 0.004725 0
-0.063695 -0.013758 0
-0.068439 -0.031033 0
-0.071106 -0.046863 0
-0.071743 -0.061108 0
-0.070323 -0.073535 0
-0.066773 -0.083811 0
-0.060993 -0.091524 0
-0.052873 -0.096226 0
-0.042329 -0.097435 0
-0.029227 -0.094759 0
-0.013576 -0.087812 0
0.004215 -0.076329 0
0.023563 -0.060780 0
0.043381 -0.041981 0
0.061972 -0.021038 0
0.077888 0.000401 0
0.089446 0.020004 0
0.095843 0.036067 0
0.097938 0.048370 0
0.096595 0.057028 0
0.092675 0.062319 0
0.086936 0.064638 0
0.080008 0.064433 0
0.072403 0.062170 0
0.064526 0.058315 0
0.056691 0.053318 0
0.049136 0.047600 0
0.042033 0.041543 0
0.035504 0.035476 0
0.029622 0.029665 0
0.024419 0.024307 0
0.019890 0.019524 0
0.016004 0.015372 0
0.012705 0.011846 0
0.009927 0.008897 0
0.007601 0.006450 0
0.005661 0.004417 0
0.004052 0.002719 0
0.002736 0.001302 0
0.001689 0.000152 0
0.000901 -0.000689 0
0.000367 -0.001119 0
0.000077 -0.000969 0
0.000000 0.000001 0
0.000000 0.000009 0
-0.003623 0.037432 0
-0.012258 0.057610 0
-0.023857 0.061180 0
-0.036523 0.051647 0
-0.048721 0.034276 0
-0.059484 0.013798 0
-0.068382 -0.006790 0
-0.075264 -0.026116 0
-0.080321 -0.043858 0
-0.083657 -0.059990 0
-0.085273 -0.074350 0
-0.085103 -0.086651 0
-0.083035 -0.096510 0
-0.078922 -0.103488 0
-0.072604 -0.107113 0
-0.063898 -0.106938 0
-0.052700 -0.102533 0
-0.038878 -0.093600 0
-0.022425 -0.080086 0
-0.003921 -0.061964 0
0.015726 -0.040065 0
0.035200 -0.016091 0
0.052527 0.007922 0
0.065118 0.029023 0
0.072950 0.045503 0
0.076713 0.057477 0
0.077302 0.065260 0
0.075486 0.069360 0
0.071908 0.070347 0
0.067117 0.068796 0
0.061559 0.065273 0
0.055590 0.060311 0
0.049493 0.054401 0
0.043488 0.047983 0
0.037743 0.041437 0
0.032376 0.035072 0
0.027465 0.029125 0
0.023049 0.023752 0
0.019135 0.019037 0
0.015702 0.014995 0
0.012711 0.011589 0
0.010111 0.008744 0
0.007852 0.006367 0
0.005891 0.004368 0
0.004199 0.002675 0
0.002765 0.001259 0
0.001599 0.000146 0
0.000727 -0.000565 0
0.000185 -0.000700 0
0.000000 0.000001 0
0.000000 0.000009 0
-0.003299 0.043387 0
-0.011382 0.067578 0
-0.022617 0.073349 0
-0.035393 0.064376 0
-0.048246 0.046306 0
-0.060143 0.024387 0
-0.070561 0.002021 0
-0.079301 -0.019094 0
-0.086437 -0.038470 0
-0.092163 -0.056156 0
-0.096526 -0.072089 0
-0.099482 -0.086049 0
-0.100919 -0.097706 0
-0.100670 -0.106657 0
-0.098528 -0.112459 0
-0.094249 -0.114663 0
-0.087590 -0.112832 0
-0.078290 -0.106604 0
-0.066181 -0.095738 0
-0.051258 -0.080133 0
-0.033512 -0.060161 0
-0.013716 -0.036401 0
0.006706 -0.009914 0
0.025688 0.015643 0
0.040198 0.036774 0
0.049945 0.052675 0
0.055940 0.063546 0
0.058892 0.070032 0
0.059428 0.072802 0
0.058149 0.072519 0
0.055529 0.069843 0
0.051974 0.065384 0
0.047815 0.059701 0
0.043322 0.053293 0
0.038713 0.046589 0
0.034160 0.039943 0
0.029789 0.033633 0
0.025687 0.027854 0
0.021905 0.022718 0
0.018462 0.018270 0
0.015350 0.014489 0
0.012546 0.011309 0
0.010020 0.008637 0
0.007743 0.006372 0
0.005697 0.004428 0
0.003886 0.002752 0
0.002340 0.001349 0
0.001117 0.000295 0
0.000304 -0.000242 0
0.000000 0.000001 0
0.000000 0.000010 0
-0.002892 0.048812 0
-0.010195 0.076928 0
-0.020727 0.085191 0
-0.033217 0.077275 0
-0.046327 0.059026 0
-0.058981 0.036113 0
-0.070575 0.012368 0
-0.080897 -0.010240 0
-0.089851 -0.030996 0
-0.097684 -0.049901 0
-0.104506 -0.067031 0
-0.110305 -0.082259 0
-0.114980 -0.095323 0
-0.118363 -0.105879 0
-0.120222 -0.113534 0
-0.120271 -0.117876 0
-0.118183 -0.118493 0
-0.113596 -0.115008 0
-0.106163 -0.107118 0
-0.095583 -0.094634 0
-0.081640 -0.077607 0
-0.064500 -0.056309 0
-0.044452 -0.031482 0
-0.022348 -0.004469 0
-0.001360 0.021246 0
0.015435 0.041734 0
0.028001 0.056312 0
0.036655 0.065871 0
0.042107 0.071090 0
0.045056 0.072695 0
0.046002 0.071448 0
0.045415 0.068026 0
0.043685 0.063053 0
0.041135 0.057084 0
0.038040 0.050598 0
0.034625 0.043996 0
0.031070 0.037597 0
0.027512 0.031636 0
0.024051 0.026263 0
0.020751 0.021550 0
0.017642 0.017504 0
0.014734 0.014073 0
0.012021 0.011170 0
0.009492 0.008691 0
0.007144 0.006532 0
0.004994 0.004617 0
0.003090 0.002916 0
0.001522 0.001470 0
0.000432 0.000417 0
0.000000 0.000001 0
0.000000 0.000010 0
-0.002437 0.053581 0
-0.008812 0.085414 0
-0.018384 0.096371 0
-0.030255 0.089975 0
-0.043269 0.072070 0
-0.056341 0.048635 0
-0.068790 0.023937 0
-0.080362 0.000182 0
-0.090940 -0.021683 0
-0.100626 -0.041502 0
-0.109621 -0.059469 0
-0.117957 -0.075575 0
-0.125557 -0.089648 0
-0.132256 -0.101415 0
-0.137818 -0.110551 0
-0.141937 -0.116702 0
-0.144245 -0.119508 0
-0.144318 -0.118625 0
-0.141700 -0.113750 0
-0.135922 -0.104656 0
-0.126558 -0.091244 0
-0.113333 -0.073589 0
-0.096123 -0.052067 0
-0.075255 -0.027449 0
-0.051560 -0.001009 0
-0.028108 0.023314 0
-0.008416 0.042325 0
0.007089 0.055926 0
0.018685 0.064402 0
0.026829 0.068624 0
0.032112 0.069483 0
0.035154 0.067700 0
0.036420 0.063981 0
0.036303 0.058938 0
0.035152 0.053098 0
0.033249 0.046914 0
0.030832 0.040747 0
0.028096 0.034872 0
0.025193 0.029480 0
0.022234 0.024679 0
0.019296 0.020505 0
0.016426 0.016930 0
0.013647 0.013879 0
0.010973 0.011249 0
0.008415 0.008926 0
0.006002 0.006807 0
0.003798 0.004820 0
0.001921 0.002952 0
0.000565 0.001280 0
0.000000 0.000002 0
0.000000 0.000009 0
-0.001968 0.057623 0
-0.007335 0.092874 0
-0.015772 0.106633 0
-0.026762 0.102160 0
-0.039374 0.085111 0
-0.052556 0.061633 0
-0.065556 0.036389 0
-0.078063 0.011910 0
-0.090031 -0.010733 0
-0.101348 -0.031221 0
-0.112245 -0.049699 0
-0.122810 -0.066323 0
-0.132991 -0.081024 0
-0.142638 -0.093618 0
-0.151517 -0.103854 0
-0.159318 -0.111450 0
-0.165660 -0.116112 0
-0.170096 -0.117554 0
-0.172124 -0.115514 0
-0.171200 -0.109776 0
-0.166769 -0.100197 0
-0.158322 -0.086745 0
-0.145445 -0.069561 0
-0.127975 -0.049033 0
-0.106107 -0.025901 0
-0.080599 -0.001410 0
-0.054968 0.021114 0
-0.032230 0.038770 0
-0.013533 0.051350 0
0.001060 0.059268 0
0.011945 0.063123 0
0.019651 0.063718 0
0.024725 0.061904 0
0.027716 0.058352 0
0.029079 0.053652 0
0.029177 0.048316 0
0.028320 0.042750 0
0.026771 0.037275 0
0.024742 0.032124 0
0.022401 0.027447 0
0.019873 0.023312 0
0.017250 0.019722 0
0.014591 0.016624 0
0.011938 0.013923 0
0.009320 0.011503 0
0.006778 0.009234 0
0.004384 0.006997 0
0.002276 0.004704 0
0.000693 0.002338 0
0.000000 0.000002 0
0.000000 0.000009 0
-0.001509 0.060915 0
-0.005851 0.099218 0
-0.013058 0.115798 0
-0.022973 0.113577 0
-0.034928 0.097863 0
-0.047944 0.074816 0
-0.061216 0.049443 0
-0.074369 0.024657 0
-0.087368 0.001602 0
-0.100156 -0.019287 0
-0.112711 -0.038007 0
-0.125204 -0.054830 0
-0.137620 -0.069820 0
-0.149824 -0.082890 0
-0.161589 -0.093872 0
-0.172608 -0.102559 0
-0.182504 -0.108729 0
-0.190831 -0.112161 0
-0.197084 -0.112647 0
-0.200705 -0.110012 0
-0.201107 -0.104122 0
-0.197700 -0.094913 0
-0.189929 -0.082414 0
-0.177362 -0.066787 0
-0.159778 -0.048386 0
-0.137339 -0.027825 0
-0.110803 -0.006044 0
-0.083215 0.014490 0
-0.057553 0.031111 0
-0.035744 0.043146 0
-0.018002 0.050891 0
-0.004240 0.054920 0
0.005978 0.055916 0
0.013240 0.054583 0
0.018037 0.051638 0
0.020892 0.047673 0
0.022236 0.043152 0
0.022424 0.038449 0
0.021743 0.033850 0
0.020433 0.029548 0
0.018680 0.025656 0
0.016628 0.022212 0
0.014379 0.019191 0
0.012008 0.016521 0
0.009568 0.014086 0
0.007112 0.011743 0
0.004715 0.009322 0
0.002522 0.006643 0
0.000800 0.003556 0
0.000000 0.000002 0
0.000000 0.000008 0
-0.001080 0.063474 0
-0.004431 0.104422 0
-0.010380 0.123755 0
-0.019096 0.124030 0
-0.030189 0.110082 0
-0.042802 0.087921 0
-0.056096 0.062814 0
-0.069621 0.038062 0
-0.083309 0.015054 0
-0.097252 -0.005878 0
-0.111281 -0.024651 0
-0.125434 -0.041414 0
-0.139753 -0.056404 0
-0.154126 -0.069649 0
-0.168337 -0.081070 0
-0.182088 -0.090534 0
-0.195010 -0.097889 0
-0.206670 -0.102975 0
-0.216583 -0.105641 0
-0.224215 -0.105752 0
-0.229003 -0.103202 0
-0.230370 -0.097923 0
-0.227754 -0.089899 0
-0.220651 -0.079185 0
-0.208668 -0.065923 0
-0.191614 -0.050384 0
-0.169616 -0.033011 0
-0.143238 -0.014480 0
-0.114757 0.003879 0
-0.086866 0.019717 0
-0.061873 0.031619 0
-0.040948 0.039737 0
-0.024087 0.044424 0
-0.010991 0.046293 0
-0.001279 0.046001 0
0.005635 0.044117 0
0.010296 0.041218 0
0.013144 0.037768 0
0.014595 0.034115 0
0.014995 0.030509 0
0.014611 0.027117 0
0.013652 0.024023 0
0.012278 0.021244 0
0.010605 0.018734 0
0.008721 0.016399 0
0.006689 0.014087 0
0.004588 0.011587 0
0.002552 0.008619 0
0.000853 0.004860 0
0.000000 0.000003 0
0.000000 0.000008 0
-0.000694 0.065345 0
-0.003123 0.108517 0
-0.007845 0.130463 0
-0.015303 0.133386 0
-0.025385 0.121569 0
-0.037396 0.100723 0
-0.050497 0.076262 0
-0.064157 0.051870 0
-0.078256 0.029233 0
-0.092905 0.008684 0
-0.108136 -0.009826 0
-0.123731 -0.026358 0
-0.139653 -0.041128 0
-0.155828 -0.054305 0
-0.172063 -0.065910 0
-0.188067 -0.075887 0
-0.203488 -0.084147 0
-0.217914 -0.090587 0
-0.230887 -0.095102 0
-0.241912 -0.097592 0
-0.250470 -0.097968 0
-0.256036 -0.096162 0
-0.258100 -0.092132 0
-0.256194 -0.085873 0
-0.249915 -0.077422 0
-0.238969 -0.066877 0
-0.223218 -0.054421 0
-0.202753 -0.040369 0
-0.177983 -0.025260 0
-0.150093 -0.009737 0
-0.121491 0.004974 0
-0.094240 0.017133 0
-0.070026 0.025958 0
-0.049834 0.031776 0
-0.033558 0.035013 0
-0.020839 0.036098 0
-0.011205 0.035642 0
-0.004194 0.034150 0
0.000708 0.032000 0
0.003958 0.029533 0
0.005936 0.026999 0
0.006931 0.024545 0
0.007182 0.022238 0
0.006871 0.020078 0
0.006129 0.018003 0
0.005046 0.015876 0
0.003700 0.013458 0
0.002206 0.010378 0
0.000801 0.006109 0
0.000000 0.000003 0
0.000000 0.000007 0
-0.000360 0.066597 0
-0.001962 0.111573 0
-0.005531 0.135934 0
-0.011728 0.141569 0
-0.020702 0.132174 0
-0.031952 0.113033 0
-0.044676 0.089575 0
-0.058268 0.065821 0
-0.072528 0.043802 0
-0.087542 0.024003 0
-0.103473 0.006175 0
-0.120218 -0.009898 0
-0.137507 -0.024307 0
-0.155159 -0.037239 0
-0.173029 -0.048831 0
-0.190841 -0.059109 0
-0.208268 -0.068042 0
-0.224923 -0.075575 0
-0.240384 -0.081643 0
-0.254197 -0.086170 0
-0.265890 -0.089079 0
-0.274992 -0.090292 0
-0.281047 -0.089741 0
-0.283640 -0.087370 0
-0.282410 -0.083148 0
-0.277073 -0.077081 0
-0.267432 -0.069226 0
-0.253413 -0.059715 0
-0.235111 -0.048782 0
-0.212895 -0.036775 0
-0.187334 -0.024234 0
-0.159760 -0.011728 0
-0.132132 0.000018 0
-0.106053 0.009825 0
-0.082663 0.017007 0
-0.062729 0.021764 0
-0.046470 0.024573 0
-0.033499 0.025855 0
-0.023362 0.025963 0
-0.015599 0.025281 0
-0.009766 0.024144 0
-0.005494 0.022777 0
-0.002455 0.021304 0
-0.000384 0.019787 0
0.000909 0.018224 0
0.001557 0.016516 0
0.001644 0.014427 0
0.001259 0.011518 0
0.000568 0.007066 0
0.000000 0.000002 0
0.000000 0.000007 0
-0.000082 0.067306 0
-0.000965 0.113688 0
-0.003487 0.140229 0
-0.008469 0.148557 0
-0.016290 0.141792 0
-0.026657 0.124696 0
-0.038851 0.102579 0
-0.052212 0.079722 0
-0.066445 0.058508 0
-0.081577 0.039629 0
-0.097758 0.022850 0
-0.115084 0.007676 0
-0.133356 -0.006186 0
-0.152251 -0.018783 0
-0.171426 -0.030228 0
-0.190655 -0.040648 0
-0.209646 -0.050066 0
-0.228045 -0.058471 0
-0.245472 -0.065828 0
-0.261520 -0.072085 0
-0.275765 -0.077172 0
-0.287780 -0.081004 0
-0.297148 -0.083484 0
-0.303483 -0.084510 0
-0.306449 -0.083989 0
-0.305774 -0.081855 0
-0.301265 -0.078080 0
-0.292819 -0.072689 0
-0.280439 -0.065778 0
-0.264261 -0.057514 0
-0.244574 -0.048161 0
-0.221911 -0.038068 0
-0.196911 -0.027749 0
-0.170539 -0.017694 0
-0.144298 -0.008311 0
-0.119472 -0.000094 0
-0.096908 0.006412 0
-0.077082 0.011042 0
-0.060201 0.014100 0
-0.046200 0.015937 0
-0.034827 0.016893 0
-0.025654 0.017233 0
-0.018312 0.017128 0
-0.012485 0.016713 0
-0.007937 0.016062 0
-0.004492 0.015141 0
-0.002048 0.013756 0
-0.000551 0.011455 0
0.000057 0.007367 0
0.000000 0.000001 0
0.000000 0.000006 0
0.000145 0.067561 0
-0.000142 0.114978 0
-0.001739 0.143439 0
-0.005588 0.154372 0
-0.012254 0.150362 0
-0.021658 0.135594 0
-0.033197 0.115130 0
-0.046189 0.093415 0
-0.060245 0.073166 0
-0.075312 0.055316 0
-0.091500 0.039682 0
-0.108903 0.025700 0
-0.127511 0.012860 0
-0.147095 0.000831 0
-0.167266 -0.010427 0
-0.187641 -0.020888 0
-0.207837 -0.030652 0
-0.227565 -0.039749 0
-0.246503 -0.048167 0
-0.264289 -0.055876 0
-0.280561 -0.062818 0
-0.294932 -0.068909 0
-0.307019 -0.074037 0
-0.316445 -0.078069 0
-0.322864 -0.080857 0
-0.325986 -0.082264 0
-0.325593 -0.082181 0
-0.321553 -0.080541 0
-0.313835 -0.077339 0
-0.302510 -0.072640 0
-0.287755 -0.066584 0
-0.269866 -0.059391 0
-0.249250 -0.051354 0
-0.226521 -0.042788 0
-0.202330 -0.034060 0
-0.177398 -0.025626 0