# vtk DataFile Version 2.0
generated by CFD-lab course output (written by Tobias Neckel) 
ASCII

DATASET STRUCTURED_GRID
DIMENSIONS  51 51 1 
POINTS 2601 float

0.000000 0.000000 0
0.020000 0.000000 0
0.040000 0.000000 0
0.060000 0.000000 0
0.080000 0.000000 0
0.100000 0.000000 0
0.120000 0.000000 0
0.140000 0.000000 0
0.160000 0.000000 0
0.180000 0.000000 0
0.200000 0.000000 0
0.220000 0.000000 0
0.240000 0.000000 0
0.260000 0.000000 0
0.280000 0.000000 0
0.300000 0.000000 0
0.320000 0.000000 0
0.340000 0.000000 0
0.360000 0.000000 0
0.380000 0.000000 0
0.400000 0.000000 0
0.420000 0.000000 0
0.440000 0.000000 0
0.460000 0.000000 0
0.480000 0.000000 0
0.500000 0.000000 0
0.520000 0.000000 0
0.540000 0.000000 0
0.560000 0.000000 0
0.580000 0.000000 0
0.600000 0.000000 0
0.620000 0.000000 0
0.640000 0.000000 0
0.660000 0.000000 0
0.680000 0.000000 0
0.700000 0.000000 0
0.720000 0.000000 0
0.740000 0.000000 0
0.760000 0.000000 0
0.780000 0.000000 0
0.800000 0.000000 0
0.820000 0.000000 0
0.840000 0.000000 0
0.860000 0.000000 0
0.880000 0.000000 0
0.900000 0.000000 0
0.920000 0.000000 0
0.940000 0.000000 0
0.960000 0.000000 0
0.980000 0.000000 0
1.000000 0.000000 0
0.000000 0.020000 0
0.020000 0.020000 0
0.040000 0.020000 0
0.060000 0.020000 0
0.080000 0.020000 0
0.100000 0.020000 0
0.120000 0.020000 0
0.140000 0.020000 0
0.160000 0.020000 0
0.180000 0.020000 0
0.200000 0.020000 0
0.220000 0.020000 0
0.240000 0.020000 0
0.260000 0.020000 0
0.280000 0.020000 0
0.300000 0.020000 0
0.320000 0.020000 0
0.340000 0.020000 0
0.360000 0.020000 0
0.380000 0.020000 0
0.400000 0.020000 0
0.420000 0.020000 0
0.440000 0.020000 0
0.460000 0.020000 0
0.480000 0.020000 0
0.500000 0.020000 0
0.520000 0.020000 0
0.540000 0.020000 0
0.560000 0.020000 0
0.580000 0.020000 0
0.600000 0.020000 0
0.620000 0.020000 0
0.640000 0.020000 0
0.660000 0.020000 0
0.680000 0.020000 0
0.700000 0.020000 0
0.720000 0.020000 0
0.740000 0.020000 0
0.760000 0.020000 0
0.780000 0.020000 0
0.800000 0.020000 0
0.820000 0.020000 0
0.840000 0.020000 0
0.860000 0.020000 0
0.880000 0.020000 0
0.900000 0.020000 0
0.920000 0.020000 0
0.940000 0.020000 0
0.960000 0.020000 0
0.980000 0.020000 0
1.000000 0.020000 0
0.000000 0.040000 0
0.020000 0.040000 0
0.040000 0.040000 0
0.060000 0.040000 0
0.080000 0.040000 0
0.100000 0.040000 0
0.120000 0.040000 0
0.140000 0.040000 0
0.160000 0.040000 0
0.180000 0.040000 0
0.200000 0.040000 0
0.220000 0.040000 0
0.240000 0.040000 0
0.260000 0.040000 0
0.280000 0.040000 0
0.300000 0.040000 0
0.320000 0.040000 0
0.340000 0.040000 0
0.360000 0.040000 0
0.380000 0.040000 0
0.400000 0.040000 0
0.420000 0.040000 0
0.440000 0.040000 0
0.460000 0.040000 0
0.480000 0.040000 0
0.500000 0.040000 0
0.520000 0.040000 0
0.540000 0.040000 0
0.560000 0.040000 0
0.580000 0.040000 0
0.600000 0.040000 0
0.620000 0.040000 0
0.640000 0.040000 0
0.660000 0.040000 0
0.680000 0.040000 0
0.700000 0.040000 0
0.720000 0.040000 0
0.740000 0.040000 0
0.760000 0.040000 0
0.780000 0.040000 0
0.800000 0.040000 0
0.820000 0.040000 0
0.840000 0.040000 0
0.860000 0.040000 0
0.880000 0.040000 0
0.900000 0.040000 0
0.920000 0.040000 0
0.940000 0.040000 0
0.960000 0.040000 0
0.980000 0.040000 0
1.000000 0.040000 0
0.000000 0.060000 0
0.020000 0.060000 0
0.040000 0.060000 0
0.060000 0.060000 0
0.080000 0.060000 0
0.100000 0.060000 0
0.120000 0.060000 0
0.140000 0.060000 0
0.160000 0.060000 0
0.180000 0.060000 0
0.200000 0.060000 0
0.220000 0.060000 0
0.240000 0.060000 0
0.260000 0.060000 0
0.280000 0.060000 0
0.300000 0.060000 0
0.320000 0.060000 0
0.340000 0.060000 0
0.360000 0.060000 0
0.380000 0.060000 0
0.400000 0.060000 0
0.420000 0.060000 0
0.440000 0.060000 0
0.460000 0.060000 0
0.480000 0.060000 0
0.500000 0.060000 0
0.520000 0.060000 0
0.540000 0.060000 0
0.560000 0.060000 0
0.580000 0.060000 0
0.600000 0.060000 0
0.620000 0.060000 0
0.640000 0.060000 0
0.660000 0.060000 0
0.680000 0.060000 0
0.700000 0.060000 0
0.720000 0.060000 0
0.740000 0.060000 0
0.760000 0.060000 0
0.780000 0.060000 0
0.800000 0.060000 0
0.820000 0.060000 0
0.840000 0.060000 0
0.860000 0.060000 0
0.880000 0.060000 0
0.900000 0.060000 0
0.920000 0.060000 0
0.940000 0.060000 0
0.960000 0.060000 0
0.980000 0.060000 0
1.000000 0.060000 0
0.000000 0.080000 0
0.020000 0.080000 0
0.040000 0.080000 0
0.060000 0.080000 0
0.080000 0.080000 0
0.100000 0.080000 0
0.120000 0.080000 0
0.140000 0.080000 0
0.160000 0.080000 0
0.180000 0.080000 0
0.200000 0.080000 0
0.220000 0.080000 0
0.240000 0.080000 0
0.260000 0.080000 0
0.280000 0.080000 0
0.300000 0.080000 0
0.320000 0.080000 0
0.340000 0.080000 0
0.360000 0.080000 0
0.380000 0.080000 0
0.400000 0.080000 0
0.420000 0.080000 0
0.440000 0.080000 0
0.460000 0.080000 0
0.480000 0.080000 0
0.500000 0.080000 0
0.520000 0.080000 0
0.540000 0.080000 0
0.560000 0.080000 0
0.580000 0.080000 0
0.600000 0.080000 0
0.620000 0.080000 0
0.640000 0.080000 0
0.660000 0.080000 0
0.680000 0.080000 0
0.700000 0.080000 0
0.720000 0.080000 0
0.740000 0.080000 0
0.760000 0.080000 0
0.780000 0.080000 0
0.800000 0.080000 0
0.820000 0.080000 0
0.840000 0.080000 0
0.860000 0.080000 0
0.880000 0.080000 0
0.900000 0.080000 0
0.920000 0.080000 0
0.940000 0.080000 0
0.960000 0.080000 0
0.980000 0.080000 0
1.000000 0.080000 0
0.000000 0.100000 0
0.020000 0.100000 0
0.040000 0.100000 0
0.060000 0.100000 0
0.080000 0.100000 0
0.100000 0.100000 0
0.120000 0.100000 0
0.140000 0.100000 0
0.160000 0.100000 0
0.180000 0.100000 0
0.200000 0.100000 0
0.220000 0.100000 0
0.240000 0.100000 0
0.260000 0.100000 0
0.280000 0.100000 0
0.300000 0.100000 0
0.320000 0.100000 0
0.340000 0.100000 0
0.360000 0.100000 0
0.380000 0.100000 0
0.400000 0.100000 0
0.420000 0.100000 0
0.440000 0.100000 0
0.460000 0.100000 0
0.480000 0.100000 0
0.500000 0.100000 0
0.520000 0.100000 0
0.540000 0.100000 0
0.560000 0.100000 0
0.580000 0.100000 0
0.600000 0.100000 0
0.620000 0.100000 0
0.640000 0.100000 0
0.660000 0.100000 0
0.680000 0.100000 0
0.700000 0.100000 0
0.720000 0.100000 0
0.740000 0.100000 0
0.760000 0.100000 0
0.780000 0.100000 0
0.800000 0.100000 0
0.820000 0.100000 0
0.840000 0.100000 0
0.860000 0.100000 0
0.880000 0.100000 0
0.900000 0.100000 0
0.920000 0.100000 0
0.940000 0.100000 0
0.960000 0.100000 0
0.980000 0.100000 0
1.000000 0.100000 0
0.000000 0.120000 0
0.020000 0.120000 0
0.040000 0.120000 0
0.060000 0.120000 0
0.080000 0.120000 0
0.100000 0.120000 0
0.120000 0.120000 0
0.140000 0.120000 0
0.160000 0.120000 0
0.180000 0.120000 0
0.200000 0.120000 0
0.220000 0.120000 0
0.240000 0.120000 0
0.260000 0.120000 0
0.280000 0.120000 0
0.300000 0.120000 0
0.320000 0.120000 0
0.340000 0.120000 0
0.360000 0.120000 0
0.380000 0.120000 0
0.400000 0.120000 0
0.420000 0.120000 0
0.440000 0.120000 0
0.460000 0.120000 0
0.480000 0.120000 0
0.500000 0.120000 0
0.520000 0.120000 0
0.540000 0.120000 0
0.560000 0.120000 0
0.580000 0.120000 0
0.600000 0.120000 0
0.620000 0.120000 0
0.640000 0.120000 0
0.660000 0.120000 0
0.680000 0.120000 0
0.700000 0.120000 0
0.720000 0.120000 0
0.740000 0.120000 0
0.760000 0.120000 0
0.780000 0.120000 0
0.800000 0.120000 0
0.820000 0.120000 0
0.840000 0.120000 0
0.860000 0.120000 0
0.880000 0.120000 0
0.900000 0.120000 0
0.920000 0.120000 0
0.940000 0.120000 0
0.960000 0.120000 0
0.980000 0.120000 0
1.000000 0.120000 0
0.000000 0.140000 0
0.020000 0.140000 0
0.040000 0.140000 0
0.060000 0.140000 0
0.080000 0.140000 0
0.100000 0.140000 0
0.120000 0.140000 0
0.140000 0.140000 0
0.160000 0.140000 0
0.180000 0.140000 0
0.200000 0.140000 0
0.220000 0.140000 0
0.240000 0.140000 0
0.260000 0.140000 0
0.280000 0.140000 0
0.300000 0.140000 0
0.320000 0.140000 0
0.340000 0.140000 0
0.360000 0.140000 0
0.380000 0.140000 0
0.400000 0.140000 0
0.420000 0.140000 0
0.440000 0.140000 0
0.460000 0.140000 0
0.480000 0.140000 0
0.500000 0.140000 0
0.520000 0.140000 0
0.540000 0.140000 0
0.560000 0.140000 0
0.580000 0.140000 0
0.600000 0.140000 0
0.620000 0.140000 0
0.640000 0.140000 0
0.660000 0.140000 0
0.680000 0.140000 0
0.700000 0.140000 0
0.720000 0.140000 0
0.740000 0.140000 0
0.760000 0.140000 0
0.780000 0.140000 0
0.800000 0.140000 0
0.820000 0.140000 0
0.840000 0.140000 0
0.860000 0.140000 0
0.880000 0.140000 0
0.900000 0.140000 0
0.920000 0.140000 0
0.940000 0.140000 0
0.960000 0.140000 0
0.980000 0.140000 0
1.000000 0.140000 0
0.000000 0.160000 0
0.020000 0.160000 0
0.040000 0.160000 0
0.060000 0.160000 0
0.080000 0.160000 0
0.100000 0.160000 0
0.120000 0.160000 0
0.140000 0.160000 0
0.160000 0.160000 0
0.180000 0.160000 0
0.200000 0.160000 0
0.220000 0.160000 0
0.240000 0.160000 0
0.260000 0.160000 0
0.280000 0.160000 0
0.300000 0.160000 0
0.320000 0.160000 0
0.340000 0.160000 0
0.360000 0.160000 0
0.380000 0.160000 0
0.400000 0.160000 0
0.420000 0.160000 0
0.440000 0.160000 0
0.460000 0.160000 0
0.480000 0.160000 0
0.500000 0.160000 0
0.520000 0.160000 0
0.540000 0.160000 0
0.560000 0.160000 0
0.580000 0.160000 0
0.600000 0.160000 0
0.620000 0.160000 0
0.640000 0.160000 0
0.660000 0.160000 0
0.680000 0.160000 0
0.700000 0.160000 0
0.720000 0.160000 0
0.740000 0.160000 0
0.760000 0.160000 0
0.780000 0.160000 0
0.800000 0.160000 0
0.820000 0.160000 0
0.840000 0.160000 0
0.860000 0.160000 0
0.880000 0.160000 0
0.900000 0.160000 0
0.920000 0.160000 0
0.940000 0.160000 0
0.960000 0.160000 0
0.980000 0.160000 0
1.000000 0.160000 0
0.000000 0.180000 0
0.020000 0.180000 0
0.040000 0.180000 0
0.060000 0.180000 0
0.080000 0.180000 0
0.100000 0.180000 0
0.120000 0.180000 0
0.140000 0.180000 0
0.160000 0.180000 0
0.180000 0.180000 0
0.200000 0.180000 0
0.220000 0.180000 0
0.240000 0.180000 0
0.260000 0.180000 0
0.280000 0.180000 0
0.300000 0.180000 0
0.320000 0.180000 0
0.340000 0.180000 0
0.360000 0.180000 0
0.380000 0.180000 0
0.400000 0.180000 0
0.420000 0.180000 0
0.440000 0.180000 0
0.460000 0.180000 0
0.480000 0.180000 0
0.500000 0.180000 0
0.520000 0.180000 0
0.540000 0.180000 0
0.560000 0.180000 0
0.580000 0.180000 0
0.600000 0.180000 0
0.620000 0.180000 0
[...]
POINT_DATA 2601 

VECTORS velocity float
0.000000 0.000000 0
0.000002 0.000000 0
0.000000 0.000000 0
-0.000001 0.000000 0
-0.000000 0.000000 0
0.000000 0.000000 0
0.000000 0.000000 0
-0.000000 0.000000 0
-0.000001 0.000000 0
-0.000001 0.000000 0
-0.000001 0.000000 0
-0.000000 0.000000 0
-0.000000 0.000000 0
-0.000000 0.000000 0
-0.000001 0.000000 0
-0.000001 0.000000 0
-0.000001 0.000000 0
-0.000001 0.000000 0
-0.000001 0.000000 0
-0.000000 0.000000 0
-0.000000 0.000000 0
-0.000000 0.000000 0
-0.000000 0.000000 0
0.000000 0.000000 0
0.000000 0.000000 0
0.000000 0.000000 0
0.000000 0.000000 0
0.000000 0.000000 0
0.000000 0.000000 0
0.000000 0.000000 0
0.000000 0.000000 0
0.000000 0.000000 0
0.000000 0.000000 0
0.000000 0.000000 0
0.000000 0.000000 0
0.000000 0.000000 0
0.000000 0.000000 0
0.000000 0.000000 0
0.000000 0.000000 0
0.000000 0.000000 0
0.000000 0.000000 0
0.000000 0.000000 0
0.000000 0.000000 0
0.000000 0.000000 0
0.000000 0.000000 0
0.000000 0.000000 0
0.000000 0.000000 0
0.000000 0.000000 0
-0.000000 0.000000 0
-0.000000 0.000000 0
0.000000 0.000000 0
0.000000 0.000002 0
-0.001836 0.001957 0
-0.007271 0.003915 0
-0.014427 0.004431 0
-0.021202 0.003658 0
-0.026263 0.002244 0
-0.029116 0.000697 0
-0.029721 -0.000797 0
-0.028163 -0.002229 0
-0.024501 -0.003609 0
-0.018806 -0.004918 0
-0.011190 -0.006089 0
-0.001847 -0.006981 0
0.008904 -0.007537 0
0.020521 -0.007719 0
0.032441 -0.007465 0
0.044080 -0.006782 0
0.054777 -0.005719 0
0.063978 -0.004376 0
0.071192 -0.002872 0
0.076102 -0.001351 0
0.078600 0.000051 0
0.078780 0.001281 0
0.076916 0.002326 0
0.073360 0.003158 0
0.068477 0.003776 0
0.062638 0.004179 0
0.056208 0.004373 0
0.049527 0.004370 0
0.042903 0.004192 0
0.036593 0.003874 0
0.030792 0.003458 0
0.025630 0.002988 0
0.021167 0.002508 0
0.017406 0.002051 0
0.014304 0.001643 0
0.011787 0.001296 0
0.009763 0.001015 0
0.008136 0.000800 0
0.006814 0.000643 0
0.005713 0.000536 0
0.004763 0.000469 0
0.003911 0.000430 0
0.003121 0.000408 0
0.002376 0.000389 0
0.001678 0.000360 0
0.001052 0.000309 0
0.000537 0.000226 0
0.000178 0.000116 0
0.000007 0.000007 0
0.000000 0.000000 0
0.000000 0.000001 0
-0.003813 0.007271 0
-0.012870 0.012590 0
-0.024248 0.013932 0
-0.035135 0.011837 0
-0.043740 0.007915 0
-0.049317 0.003458 0
-0.051719 -0.000954 0
-0.051042 -0.005220 0
-0.047396 -0.009356 0
-0.040892 -0.013310 0
-0.031670 -0.016959 0
-0.019920 -0.020094 0
-0.005880 -0.022368 0
0.009988 -0.023537 0
0.027122 -0.023559 0
0.044738 -0.022336 0
0.062003 -0.019899 0
0.078113 -0.016416 0
0.092136 -0.012124 0
0.103285 -0.007408 0
0.110972 -0.002678 0
0.114854 0.001684 0
0.115007 0.005420 0
0.111935 0.008440 0
0.106277 0.010721 0
0.098698 0.012269 0
0.089845 0.013111 0
0.080313 0.013305 0
0.070621 0.012934 0
0.061201 0.012110 0
0.052380 0.010962 0
0.044381 0.009625 0
0.037327 0.008224 0
0.031254 0.006863 0
0.026128 0.005619 0
0.021864 0.004541 0
0.018345 0.003651 0
0.015442 0.002949 0
0.013025 0.002424 0
0.010972 0.002051 0
0.009182 0.001802 0
0.007572 0.001642 0
0.006087 0.001536 0
0.004700 0.001443 0
0.003411 0.001323 0
0.002252 0.001142 0
0.001275 0.000874 0
0.000547 0.000530 0
0.000119 0.000178 0
0.000000 0.000000 0
0.000000 -0.000000 0
-0.005025 0.014826 0
-0.016384 0.024350 0
-0.030446 0.026698 0
-0.044090 0.023150 0
-0.055389 0.016426 0
-0.063537 0.008675 0
-0.068355 0.000928 0
-0.069930 -0.006551 0
-0.068454 -0.013758 0
-0.064087 -0.020643 0
-0.056974 -0.027061 0
-0.047266 -0.032772 0
-0.035128 -0.037446 0
-0.020669 -0.040722 0
-0.004153 -0.042214 0
0.013992 -0.041663 0
0.033272 -0.039095 0
0.052827 -0.034510 0
0.071691 -0.028043 0
0.088856 -0.020186 0
0.103241 -0.011518 0
0.113796 -0.002754 0
0.119862 0.005245 0
0.121254 0.011889 0
0.118628 0.017012 0
0.112887 0.020611 0
0.104938 0.022759 0
0.095607 0.023594 0
0.085611 0.023304 0
0.075538 0.022115 0
0.065832 0.020278 0
0.056808 0.018041 0
0.048657 0.015635 0
0.041470 0.013251 0
0.035252 0.011033 0
0.029946 0.009079 0
0.025454 0.007437 0
0.021651 0.006120 0
0.018409 0.005113 0
0.015603 0.004379 0
0.013122 0.003869 0
0.010878 0.003525 0
0.008807 0.003280 0
0.006875 0.003065 0
0.005081 0.002809 0
0.003455 0.002445 0
0.002054 0.001931 0
0.000959 0.001272 0
0.000251 0.000554 0
0.000000 0.000000 0
0.000000 -0.000001 0
-0.005592 0.023655 0
-0.018205 0.038012 0
-0.033905 0.041639 0
-0.049449 0.036780 0
-0.062866 0.027361 0
-0.073335 0.016424 0
-0.080689 0.005440 0
-0.085008 -0.005121 0
-0.086511 -0.015199 0
-0.085400 -0.024791 0
-0.081823 -0.033780 0
-0.075890 -0.041940 0
-0.067688 -0.048966 0
-0.057265 -0.054512 0
-0.044656 -0.058220 0
-0.029866 -0.059762 0
-0.013018 -0.058734 0
0.005479 -0.054835 0
0.025187 -0.048153 0
0.045332 -0.038958 0
0.064697 -0.027618 0
0.081928 -0.014938 0
0.095786 -0.002039 0
0.105040 0.009673 0
0.108907 0.019087 0
0.108266 0.025959 0
0.104195 0.030392 0
0.097713 0.032633 0
0.089743 0.033004 0
0.081042 0.031889 0
0.072186 0.029692 0
0.063596 0.026800 0
0.055558 0.023562 0
0.048238 0.020268 0
0.041710 0.017143 0
0.035973 0.014340 0
0.030974 0.011946 0
0.026628 0.009993 0
0.022831 0.008472 0
0.019478 0.007338 0
0.016470 0.006527 0
0.013726 0.005958 0
0.011184 0.005538 0
0.008810 0.005168 0
0.006597 0.004744 0
0.004571 0.004169 0
0.002792 0.003370 0
0.001355 0.002333 0
0.000378 0.001137 0
0.000000 0.000000 0
0.000000 -0.000001 0
-0.005710 0.033031 0
-0.018765 0.052665 0
-0.035292 0.057942 0
-0.052080 0.052109 0
-0.067128 0.040312 0
-0.079587 0.026499 0
-0.089281 0.012601 0
-0.096295 -0.000728 0
-0.100780 -0.013365 0
-0.102960 -0.025332 0
-0.103000 -0.036572 0
-0.100990 -0.046907 0
-0.096977 -0.056072 0
-0.090967 -0.063753 0
-0.082939 -0.069613 0
-0.072854 -0.073302 0
-0.060692 -0.074439 0
-0.046347 -0.072714 0
-0.029814 -0.067897 0
-0.011374 -0.059696 0
0.008415 -0.048115 0
0.028788 -0.033844 0
0.048474 -0.017867 0
0.065739 -0.001232 0
0.078602 0.013787 0
0.085890 0.025322 0
0.088433 0.033312 0
0.087272 0.038046 0
0.083515 0.039975 0
0.078076 0.039672 0
0.071668 0.037724 0
0.064849 0.034669 0
0.058028 0.030993 0
0.051476 0.027098 0
0.045360 0.023299 0
0.039766 0.019815 0
0.034714 0.016782 0
0.030179 0.014263 0
0.026106 0.012263 0
0.022428 0.010740 0
0.019075 0.009621 0
0.015983 0.008811 0
0.013102 0.008196 0
0.010400 0.007653 0
0.007869 0.007048 0
0.005529 0.006249 0
0.003441 0.005147 0
0.001710 0.003686 0
0.000492 0.001909 0
0.000000 0.000000 0
0.000000 -0.000000 0
-0.005525 0.042421 0
-0.018405 0.067595 0
-0.035105 0.074952 0
-0.052585 0.068615 0
-0.068824 0.054869 0
-0.082897 0.038578 0
-0.094591 0.022149 0
-0.103973 0.006377 0
-0.111149 -0.008535 0
-0.116279 -0.022571 0
-0.119555 -0.035750 0
-0.121077 -0.047963 0
-0.120880 -0.058990 0
-0.118961 -0.068550 0
-0.115285 -0.076332 0
-0.109792 -0.082009 0
-0.102395 -0.085241 0
-0.092955 -0.085713 0
-0.081363 -0.083126 0
-0.067518 -0.077187 0
-0.051271 -0.067780 0
-0.032693 -0.054996 0
-0.012416 -0.038989 0
0.008510 -0.020455 0
0.028759 -0.001064 0
0.045742 0.016128 0
0.057180 0.029011 0
0.063622 0.037551 0
0.066226 0.042199 0
0.065946 0.043736 0
0.063605 0.042919 0
0.059926 0.040440 0
0.055462 0.036936 0
0.050615 0.032935 0
0.045678 0.028852 0
0.040847 0.024986 0
0.036241 0.021533 0
0.031918 0.018602 0
0.027895 0.016223 0
0.024160 0.014370 0
0.020685 0.012972 0
0.017436 0.011930 0
0.014384 0.011121 0
0.011504 0.010401 0
0.008788 0.009615 0
0.006254 0.008596 0
0.003955 0.007190 0
0.002005 0.005282 0
0.000593 0.002846 0
0.000000 0.000000 0
0.000000 0.000000 0
-0.005136 0.051437 0
-0.017385 0.082244 0
-0.033731 0.092121 0
-0.051426 0.085829 0
-0.068447 0.070625 0
-0.083760 0.052268 0
-0.097075 0.033677 0
-0.108433 0.015828 0
-0.117944 -0.001060 0
-0.125667 -0.016926 0
-0.131763 -0.031774 0
-0.136373 -0.045583 0
-0.139542 -0.058188 0
-0.141263 -0.069348 0
-0.141497 -0.078782 0
-0.140173 -0.086191 0
-0.137190 -0.091276 0
-0.132407 -0.093748 0
-0.125661 -0.093334 0
-0.116744 -0.089788 0
-0.105396 -0.082940 0
-0.091436 -0.072699 0
-0.074787 -0.059071 0
-0.055434 -0.042406 0
-0.033848 -0.023445 0
-0.011357 -0.003099 0
0.009072 0.015432 0
0.025096 0.029000 0
0.036141 0.037650 0
0.042931 0.042293 0
0.046371 0.043744 0
0.047340 0.042813 0
0.046521 0.040304 0
0.044464 0.036882 0
0.041607 0.033068 0
0.038290 0.029252 0
0.034753 0.025710 0
0.031159 0.022609 0
0.027615 0.020022 0
0.024183 0.017951 0
0.020892 0.016345 0
0.017752 0.015111 0
0.014760 0.014129 0
0.011910 0.013249 0
0.009196 0.012298 0
0.006633 0.011083 0
0.004267 0.009396 0
0.002210 0.007048 0
0.000674 0.003914 0
0.000000 0.000000 0
0.000000 0.000000 0
-0.004619 0.059807 0
-0.015914 0.096189 0
-0.031488 0.108992 0
-0.048980 0.103332 0
-0.066411 0.087204 0
-0.082616 0.067205 0
-0.097199 0.046821 0
-0.110169 0.027246 0
-0.121632 0.008698 0
-0.131646 -0.008753 0
-0.140236 -0.025044 0
-0.147572 -0.040184 0
-0.153720 -0.054099 0
-0.158679 -0.066594 0
-0.162398 -0.077422 0
-0.164795 -0.086316 0
-0.165754 -0.093008 0
-0.165133 -0.097243 0
-0.162755 -0.098789 0
-0.158404 -0.097452 0
-0.151813 -0.093088 0
-0.142702 -0.085605 0
-0.130762 -0.074992 0
-0.115697 -0.061395 0
-0.097445 -0.045141 0
-0.076244 -0.026793 0
-0.052588 -0.007442 0
-0.029318 0.010481 0
-0.009244 0.024364 0
0.006148 0.033507 0
0.017234 0.038510 0
0.024609 0.040290 0
0.028961 0.039812 0
0.031025 0.037849 0
0.031401 0.035026 0
0.030583 0.031840 0
0.028954 0.028664 0
0.026801 0.025739 0
0.024341 0.023200 0
0.021728 0.021093 0
0.019066 0.019403 0
0.016419 0.018062 0
0.013825 0.016963 0
0.011302 0.015965 0
0.008856 0.014892 0
0.006501 0.013526 0
0.004274 0.011612 0
0.002276 0.008875 0
0.000721 0.005057 0
0.000000 0.000000 0
0.000000 0.000001 0
-0.004030 0.067351 0
-0.014158 0.109113 0
-0.028637 0.125187 0
-0.045567 0.120753 0
-0.063070 0.104262 0
-0.079851 0.083055 0
-0.095383 0.061229 0
-0.109627 0.040261 0
-0.122693 0.020416 0
-0.134672 0.001679 0
-0.145541 -0.015848 0
-0.155315 -0.032098 0
-0.164122 -0.047080 0
-0.171971 -0.060670 0
-0.178803 -0.072666 0
-0.184515 -0.082836 0
-0.188972 -0.090938 0
-0.192012 -0.096747 0
-0.193448 -0.100063 0
-0.193066 -0.100730 0
-0.190621 -0.098642 0
-0.185840 -0.093751 0
-0.178410 -0.086075 0
-0.167998 -0.075723 0
-0.154323 -0.062899 0
-0.137197 -0.047956 0
-0.116638 -0.031493 0
-0.093186 -0.014344 0
-0.068811 0.002185 0
-0.045998 0.015815 0
-0.026672 0.025282 0
-0.011617 0.031086 0
-0.000474 0.033887 0
0.007364 0.034442 0
0.012488 0.033510 0
0.015500 0.031699 0
0.016935 0.029492 0
0.017223 0.027221 0
0.016716 0.025094 0
0.015674 0.023226 0
0.014291 0.021654 0
0.012701 0.020352 0
0.010996 0.019247 0
0.009229 0.018218 0
0.007432 0.017099 0
0.005621 0.015665 0
0.003824 0.013621 0
0.002122 0.010601 0
0.000711 0.006190 0
0.000000 0.000000 0
0.000000 0.000000 0
-0.003413 0.073964 0
-0.012253 0.120796 0
-0.025403 0.140402 0
-0.041465 0.137765 0
-0.058731 0.121488 0
-0.075806 0.099518 0
-0.092010 0.076597 0
-0.107233 0.054555 0
-0.121587 0.033744 0
-0.135184 0.014095 0
-0.148051 -0.004401 0
-0.160062 -0.021602 0
-0.171257 -0.037443 0
-0.181687 -0.051914 0
-0.191294 -0.064879 0
-0.199959 -0.076147 0
-0.207519 -0.085511 0
-0.213784 -0.092767 0
-0.218540 -0.097735 0
-0.221563 -0.100279 0
-0.222613 -0.100314 0
-0.221448 -0.097817 0
-0.217805 -0.092834 0
-0.211420 -0.085481 0
-0.202032 -0.075941 0
-0.189409 -0.064478 0
-0.173419 -0.051453 0
-0.154154 -0.037346 0
-0.131991 -0.022825 0
-0.107942 -0.008633 0
-0.084216 0.004129 0
-0.062538 0.014092 0
-0.044100 0.020831 0
-0.029399 0.024887 0
-0.018119 0.026890 0
-0.009757 0.027394 0
-0.003784 0.026941 0
0.000295 0.025958 0
0.002939 0.024749 0
0.004526 0.023518 0
0.005346 0.022376 0
0.005615 0.021357 0
0.005494 0.020435 0
0.005092 0.019529 0
0.004474 0.018501 0
0.003671 0.017133 0
0.002708 0.015111 0
0.001635 0.011988 0
0.000605 0.007179 0
0.000000 0.000000 0
0.000000 0.000000 0
-0.002802 0.079604 0
-0.010308 0.131102 0
-0.021972 0.154400 0
-0.036915 0.154082 0
-0.053669 0.138602 0
-0.070780 0.116332 0
-0.087410 0.092655 0
-0.103349 0.069838 0
-0.118695 0.048368 0
-0.133583 0.028143 0
-0.148071 0.009031 0
-0.162093 -0.008891 0
-0.175464 -0.025456 0
-0.188194 -0.040634 0
-0.200257 -0.054395 0
-0.211531 -0.066611 0
-0.221835 -0.077113 0
-0.230947 -0.085725 0
-0.238620 -0.092285 0
-0.244598 -0.096657 0
-0.248629 -0.098757 0
-0.250472 -0.098559 0
-0.249907 -0.096103 0
-0.246735 -0.091497 0
-0.240782 -0.084910 0
-0.231905 -0.076569 0
-0.220012 -0.066748 0
-0.205097 -0.055772 0
-0.187288 -0.044028 0
-0.166965 -0.031961 0
-0.144698 -0.020121 0
-0.121641 -0.009031 0
-0.099384 0.000748 0
-0.079094 0.008461 0
-0.061480 0.013868 0
-0.046865 0.017364 0
-0.035164 0.019440 0
-0.025965 0.020498 0
-0.018822 0.020863 0
-0.013331 0.020819 0
-0.009144 0.020565 0
-0.005975 0.020204 0
-0.003590 0.019770 0
-0.001817 0.019238 0
-0.000548 0.018520 0
0.000274 0.017431 0
0.000676 0.015658 0
0.000675 0.012704 0
0.000353 0.007824 0
0.000000 0.000000 0
0.000000 0.000000 0
-0.002219 0.084272 0
-0.008405 0.139967 0
-0.018501 0.167010 0
-0.032128 0.169461 0
-0.048121 0.155352 0
-0.065033 0.133259 0
-0.081869 0.109166 0
-0.098294 0.085841 0
-0.114362 0.063978 0
-0.130221 0.043471 0
-0.145966 0.024109 0
-0.161595 0.005790 0
-0.176924 -0.011343 0
-0.191720 -0.027121 0
-0.205940 -0.041541 0
-0.219489 -0.054569 0
-0.232188 -0.066095 0
-0.243799 -0.075982 0
-0.254044 -0.084084 0
-0.262634 -0.090270 0
-0.269283 -0.094439 0
-0.273731 -0.096538 0
-0.275755 -0.096572 0
-0.275186 -0.094606 0
-0.271908 -0.090771 0
-0.265862 -0.085247 0
-0.257042 -0.078261 0
-0.245500 -0.070071 0
-0.231351 -0.060957 0
-0.214801 -0.051223 0
-0.196157 -0.041195 0
-0.175915 -0.031222 0
-0.154635 -0.021717 0
-0.133107 -0.013017 0
-0.112408 -0.005339 0
-0.093336 0.001078 0
-0.076333 0.006041 0
-0.061574 0.009616 0
-0.049060 0.012115 0
-0.038628 0.013840 0
-0.029998 0.015020 0
-0.022861 0.015803 0
-0.016954 0.016277 0
-0.012077 0.016488 0
-0.008089 0.016409 0
-0.004906 0.015909 0
-0.002502 0.014711 0
-0.000891 0.012310 0
-0.000094 0.007854 0
0.000000 -0.000000 0
0.000000 0.000000 0
-0.001682 0.088009 0
-0.006608 0.147385 0
-0.015117 0.178123 0
-0.027284 0.183701 0
-0.042300 0.171506 0
-0.058792 0.150080 0
-0.075635 0.125917 0
-0.092343 0.102331 0
-0.108897 0.080296 0
-0.125443 0.059748 0
-0.142098 0.040404 0
-0.158885 0.022066 0
-0.175732 0.004669 0
-0.192363 -0.011619 0
-0.208493 -0.026626 0
-0.224002 -0.040362 0
-0.238751 -0.052803 0
-0.252515 -0.063870 0
-0.265009 -0.073449 0
-0.275917 -0.081418 0
-0.284921 -0.087660 0
-0.291725 -0.092086 0
-0.296076 -0.094647 0
-0.297788 -0.095344 0
-0.296746 -0.094236 0
-0.292920 -0.091436 0
-0.286354 -0.087110 0
-0.277159 -0.081462 0
-0.265504 -0.074727 0
-0.251600 -0.067155 0
-0.235699 -0.059008 0
-0.218104 -0.050553 0
-0.199168 -0.042060 0
-0.179371 -0.033766 0
-0.159183 -0.025902 0
-0.139095 -0.018710 0
-0.119634 -0.012323 0
-0.101354 -0.006775 0
-0.084617 -0.002084 0
-0.069571 0.001757 0
-0.056228 0.004798 0
-0.044519 0.007161 0
-0.034348 0.008986 0
-0.025594 0.010373 0
-0.018145 0.011349 0
-0.011909 0.011844 0
-0.006871 0.011642 0
-0.003103 0.010296 0
-0.000761 0.006933 0
0.000000 -0.000000 0
0.000000 0.000000 0
-0.001199 0.090880 0
-0.004959 0.153402 0
-0.011915 0.187686 0
-0.022536 0.196644 0
-0.036389 0.186858 0
-0.052254 0.166594 0
-0.068918 0.142718 0
-0.085728 0.119103 0
-0.102565 0.097079 0
-0.119546 0.076673 0
-0.136797 0.057551 0
-0.154365 0.039424 0
-0.172202 0.022135 0
-0.190174 0.005640 0
-0.207942 -0.009902 0
-0.225171 -0.024310 0
-0.241647 -0.037583 0
-0.257216 -0.049725 0
-0.271624 -0.060682 0
-0.284556 -0.070358 0
-0.295677 -0.078631 0
-0.304658 -0.085383 0
-0.311201 -0.090509 0
-0.315073 -0.093937 0
-0.316119 -0.095638 0
-0.314275 -0.095640 0
-0.309574 -0.094022 0
-0.302136 -0.090921 0
-0.292156 -0.086517 0
-0.279882 -0.081028 0
-0.265598 -0.074691 0
-0.249608 -0.067752 0
-0.232227 -0.060450 0
-0.213788 -0.053002 0
-0.194607 -0.045615 0
-0.175032 -0.038471 0
-0.155439 -0.031700 0
-0.136163 -0.025401 0
-0.117497 -0.019669 0
-0.099699 -0.014550 0
-0.083000 -0.010031 0
-0.067584 -0.006077 0
-0.053559 -0.002648 0
-0.040965 0.000285 0
-0.029820 0.002724 0
-0.020160 0.004636 0
-0.012083 0.005905 0
-0.005785 0.006199 0
-0.001594 0.004750 0
0.000000 -0.000000 0
0.000000 0.000000 0
-0.000777 0.092969 0
-0.003485 0.158101 0
-0.008966 0.195699 0
-0.018006 0.208175 0
-0.030547 0.201224 0
-0.045592 0.182609 0
-0.061893 0.159391 0
-0.078641 0.135979 0
-0.095583 0.114114 0
-0.112780 0.093980 0
-0.130355 0.075223 0
-0.148365 0.057470 0
-0.166786 0.040478 0
-0.185510 0.024122 0
-0.204359 0.008371 0
-0.222970 -0.006657 0
-0.240954 -0.020758 0
-0.258006 -0.033893 0
-0.273984 -0.046109 0
-0.288617 -0.057364 0
-0.301588 -0.067558 0
-0.312551 -0.076563 0
-0.321174 -0.084232 0
-0.327163 -0.090427 0
-0.330298 -0.095034 0
-0.330444 -0.097981 0
-0.327572 -0.099249 0
-0.321754 -0.098880 0
-0.313159 -0.096981 0
-0.302039 -0.093712 0
-0.288703 -0.089282 0
-0.273492 -0.083923 0
-0.256758 -0.077880 0
-0.238841 -0.071387 0
-0.220059 -0.064658 0
-0.200712 -0.057878 0
-0.181082 -0.051192 0
-0.161415 -0.044717 0
-0.141946 -0.038548 0
-0.122907 -0.032741 0
-0.104511 -0.027316 0
-0.086943 -0.022280 0
-0.070365 -0.017634 0
-0.054927 -0.013367 0
-0.040788 -0.009456 0
-0.028150 -0.005893 0
-0.017268 -0.002732 0
-0.008514 -0.000193 0
-0.002458 0.001148 0
0.000000 -0.000000 0
0.000000 0.000000 0
-0.000418 0.094365 0
-0.002198 0.161591 0
-0.006315 0.202206 0
-0.013787 0.218224 0
-0.024907 0.214444 0
-0.038951 0.197941 0
-0.054712 0.175768 0
-0.071237 0.152793 0
-0.088124 0.131218 0
-0.105349 0.111443 0
-0.123010 0.093135 0
-0.141172 0.075856 0
-0.159823 0.059280 0
-0.178878 0.043213 0
-0.198190 0.027558 0
-0.217552 0.012284 0
-0.236618 -0.002546 0
-0.254956 -0.016694 0
-0.272195 -0.030070 0
-0.288187 -0.042754 0
-0.302686 -0.054697 0
-0.315376 -0.065797 0
-0.325909 -0.075897 0
-0.333944 -0.084813 0
-0.339190 -0.092357 0
-0.341426 -0.098365 0
-0.340528 -0.102713 0
-0.336479 -0.105334 0
-0.329378 -0.106231 0
-0.319427 -0.105484 0
-0.306921 -0.103238 0
-0.292218 -0.099697 0
-0.275708 -0.095101 0
-0.257785 -0.089701 0
-0.238820 -0.083744 0
-0.219153 -0.077448 0
-0.199077 -0.070997 0
-0.178841 -0.064537 0
-0.158663 -0.058177 0
-0.138739 -0.051984 0
-0.119243 -0.045995 0
-0.100339 -0.040224 0
-0.082191 -0.034664 0
-0.064979 -0.029291 0
-0.048913 -0.024053 0
-0.034249 -0.018884 0
-0.021340 -0.013732 0
-0.010703 -0.008610 0
-0.003159 -0.003763 0
0.000000 -0.000000 0
0.000000 0.000000 0
-0.000123 0.095167 0
-0.001104 0.163998 0
-0.003986 0.207286 0
-0.009944 0.226766 0
-0.019574 0.226389 0
-0.032460 0.212415 0
-0.047500 0.191678 0
-0.063643 0.169391 0
-0.080324 0.148225 0
-0.097411 0.128866 0
-0.114957 0.111045 0
-0.133021 0.094283 0
-0.151602 0.078185 0
-0.170632 0.062489 0
-0.189988 0.047045 0
-0.209501 0.031771 0
-0.228956 0.016647 0
-0.248056 0.001685 0
-0.266323 -0.012878 0
-0.283389 -0.026873 0
-0.299069 -0.040369 0
-0.313156 -0.053340 0
-0.325338 -0.065664 0
-0.335257 -0.077145 0
-0.342564 -0.087552 0
-0.346958 -0.096643 0
-0.348211 -0.104195 0
-0.346193 -0.110031 0
-0.340894 -0.114033 0
-0.332429 -0.116168 0
-0.321028 -0.116490 0
-0.307024 -0.115137 0
-0.290818 -0.112314 0
-0.272845 -0.108275 0
-0.253541 -0.103290 0
-0.233313 -0.097621 0
-0.212520 -0.091503 0
-0.191465 -0.085131 0
-0.170402 -0.078651 0
-0.149538 -0.072161 0
-0.129049 -0.065715 0
-0.109092 -0.059332 0
-0.089823 -0.052994 0
-0.071418 -0.046645 0
-0.054092 -0.040186 0
-0.038123 -0.033466 0
-0.023913 -0.026279 0
-0.012074 -0.018373 0
-0.003586 -0.009555 0
0.000000 -0.000000 0
0.000000 0.000000 0
0.000118 0.095469 0
-0.000201 0.165453 0
-0.001985 0.211045 0
-0.006516 0.233813 0
-0.014632 0.236961 0
-0.026225 0.225867 0
-0.040367 0.206951 0
-0.055962 0.185617 0
-0.072290 0.164985 0
-0.089088 0.146076 0
-0.106345 0.128746 0
-0.124102 0.112501 0
-0.142362 0.096891 0
-0.161069 0.081599 0
-0.180123 0.066427 0
-0.199385 0.051253 0
-0.218684 0.036010 0
-0.237810 0.020673 0
-0.256523 0.005262 0
-0.274357 -0.010009 0
-0.290926 -0.024930 0
-0.306035 -0.039528 0
-0.319511 -0.053796 0
-0.331035 -0.067586 0
-0.340237 -0.080655 0
-0.346752 -0.092719 0
-0.350260 -0.103478 0
-0.350516 -0.112650 0
-0.347381 -0.119995 0