# vtk DataFile Version 2.0
generated by CFD-lab course output (written by Tobias Neckel) 
ASCII

DATASET STRUCTURED_GRID
DIMENSIONS  51 51 1 
POINTS 2601 float

0.000000 0.000000 0
0.020000 0.000000 0
0.040000 0.000000 0
0.060000 0.000000 0
0.080000 0.000000 0
0.100000 0.000000 0
0.120000 0.000000 0
0.140000 0.000000 0
0.160000 0.000000 0
0.180000 0.000000 0
0.200000 0.000000 0
0.220000 0.000000 0
0.240000 0.000000 0
0.260000 0.000000 0
0.280000 0.000000 0
0.300000 0.000000 0
0.320000 0.000000 0
0.340000 0.000000 0
0.360000 0.000000 0
0.380000 0.000000 0
0.400000 0.000000 0
0.420000 0.000000 0
0.440000 0.000000 0
0.460000 0.000000 0
0.480000 0.000000 0
0.500000 0.000000 0
0.520000 0.000000 0
0.540000 0.000000 0
0.560000 0.000000 0
0.580000 0.000000 0
0.600000 0.000000 0
0.620000 0.000000 0
0.640000 0.000000 0
0.660000 0.000000 0
0.680000 0.000000 0
0.700000 0.000000 0
0.720000 0.000000 0
0.740000 0.000000 0
0.760000 0.000000 0
0.780000 0.000000 0
0.800000 0.000000 0
0.820000 0.000000 0
0.840000 0.000000 0
0.860000 0.000000 0
0.880000 0.000000 0
0.900000 0.000000 0
0.920000 0.000000 0
0.940000 0.000000 0
0.960000 0.000000 0
0.980000 0.000000 0
1.000000 0.000000 0
0.000000 0.020000 0
0.020000 0.020000 0
0.040000 0.020000 0
0.060000 0.020000 0
0.080000 0.020000 0
0.100000 0.020000 0
0.120000 0.020000 0
0.140000 0.020000 0
0.160000 0.020000 0
0.180000 0.020000 0
0.200000 0.020000 0
0.220000 0.020000 0
0.240000 0.020000 0
0.260000 0.020000 0
0.280000 0.020000 0
0.300000 0.020000 0
0.320000 0.020000 0
0.340000 0.020000 0
0.360000 0.020000 0
0.380000 0.020000 0
0.400000 0.020000 0
0.420000 0.020000 0
0.440000 0.020000 0
0.460000 0.020000 0
0.480000 0.020000 0
0.500000 0.020000 0
0.520000 0.020000 0
0.540000 0.020000 0
0.560000 0.020000 0
0.580000 0.020000 0
0.600000 0.020000 0
0.620000 0.020000 0
0.640000 0.020000 0
0.660000 0.020000 0
0.680000 0.020000 0
0.700000 0.020000 0
0.720000 0.020000 0
0.740000 0.020000 0
0.760000 0.020000 0
0.780000 0.020000 0
0.800000 0.020000 0
0.820000 0.020000 0
0.840000 0.020000 0
0.860000 0.020000 0
0.880000 0.020000 0
0.900000 0.020000 0
0.920000 0.020000 0
0.940000 0.020000 0
0.960000 0.020000 0
0.980000 0.020000 0
1.000000 0.020000 0
0.000000 0.040000 0
0.020000 0.040000 0
0.040000 0.040000 0
0.060000 0.040000 0
0.080000 0.040000 0
0.100000 0.040000 0
0.120000 0.040000 0
0.140000 0.040000 0
0.160000 0.040000 0
0.180000 0.040000 0
0.200000 0.040000 0
0.220000 0.040000 0
0.240000 0.040000 0
0.260000 0.040000 0
0.280000 0.040000 0
0.300000 0.040000 0
0.320000 0.040000 0
0.340000 0.040000 0
0.360000 0.040000 0
0.380000 0.040000 0
0.400000 0.040000 0
0.420000 0.040000 0
0.440000 0.040000 0
0.460000 0.040000 0
0.480000 0.040000 0
0.500000 0.040000 0
0.520000 0.040000 0
0.540000 0.040000 0
0.560000 0.040000 0
0.580000 0.040000 0
0.600000 0.040000 0
0.620000 0.040000 0
0.640000 0.040000 0
0.660000 0.040000 0
0.680000 0.040000 0
0.700000 0.040000 0
0.720000 0.040000 0
0.740000 0.040000 0
0.760000 0.040000 0
0.780000 0.040000 0
0.800000 0.040000 0
0.820000 0.040000 0
0.840000 0.040000 0
0.860000 0.040000 0
0.880000 0.040000 0
0.900000 0.040000 0
0.920000 0.040000 0
0.940000 0.040000 0
0.960000 0.040000 0
0.980000 0.040000 0
1.000000 0.040000 0
0.000000 0.060000 0
0.020000 0.060000 0
0.040000 0.060000 0
0.060000 0.060000 0
0.080000 0.060000 0
0.100000 0.060000 0
0.120000 0.060000 0
0.140000 0.060000 0
0.160000 0.060000 0
0.180000 0.060000 0
0.200000 0.060000 0
0.220000 0.060000 0
0.240000 0.060000 0
0.260000 0.060000 0
0.280000 0.060000 0
0.300000 0.060000 0
0.320000 0.060000 0
0.340000 0.060000 0
0.360000 0.060000 0
0.380000 0.060000 0
0.400000 0.060000 0
0.420000 0.060000 0
0.440000 0.060000 0
0.460000 0.060000 0
0.480000 0.060000 0
0.500000 0.060000 0
0.520000 0.060000 0
0.540000 0.060000 0
0.560000 0.060000 0
0.580000 0.060000 0
0.600000 0.060000 0
0.620000 0.060000 0
0.640000 0.060000 0
0.660000 0.060000 0
0.680000 0.060000 0
0.700000 0.060000 0
0.720000 0.060000 0
0.740000 0.060000 0
0.760000 0.060000 0
0.780000 0.060000 0
0.800000 0.060000 0
0.820000 0.060000 0
0.840000 0.060000 0
0.860000 0.060000 0
0.880000 0.060000 0
0.900000 0.060000 0
0.920000 0.060000 0
0.940000 0.060000 0
0.960000 0.060000 0
0.980000 0.060000 0
1.000000 0.060000 0
0.000000 0.080000 0
0.020000 0.080000 0
0.040000 0.080000 0
0.060000 0.080000 0
0.080000 0.080000 0
0.100000 0.080000 0
0.120000 0.080000 0
0.140000 0.080000 0
0.160000 0.080000 0
0.180000 0.080000 0
0.200000 0.080000 0
0.220000 0.080000 0
0.240000 0.080000 0
0.260000 0.080000 0
0.280000 0.080000 0
0.300000 0.080000 0
0.320000 0.080000 0
0.340000 0.080000 0
0.360000 0.080000 0
0.380000 0.080000 0
0.400000 0.080000 0
0.420000 0.080000 0
0.440000 0.080000 0
0.460000 0.080000 0
0.480000 0.080000 0
0.500000 0.080000 0
0.520000 0.080000 0
0.540000 0.080000 0
0.560000 0.080000 0
0.580000 0.080000 0
0.600000 0.080000 0
0.620000 0.080000 0
0.640000 0.080000 0
0.660000 0.080000 0
0.680000 0.080000 0
0.700000 0.080000 0
0.720000 0.080000 0
0.740000 0.080000 0
0.760000 0.080000 0
0.780000 0.080000 0
0.800000 0.080000 0
0.820000 0.080000 0
0.840000 0.080000 0
0.860000 0.080000 0
0.880000 0.080000 0
0.900000 0.080000 0
0.920000 0.080000 0
0.940000 0.080000 0
0.960000 0.080000 0
0.980000 0.080000 0
1.000000 0.080000 0
0.000000 0.100000 0
0.020000 0.100000 0
0.040000 0.100000 0
0.060000 0.100000 0
0.080000 0.100000 0
0.100000 0.100000 0
0.120000 0.100000 0
0.140000 0.100000 0
0.160000 0.100000 0
0.180000 0.100000 0
0.200000 0.100000 0
0.220000 0.100000 0
0.240000 0.100000 0
0.260000 0.100000 0
0.280000 0.100000 0
0.300000 0.100000 0
0.320000 0.100000 0
0.340000 0.100000 0
0.360000 0.100000 0
0.380000 0.100000 0
0.400000 0.100000 0
0.420000 0.100000 0
0.440000 0.100000 0
0.460000 0.100000 0
0.480000 0.100000 0
0.500000 0.100000 0
0.520000 0.100000 0
0.540000 0.100000 0
0.560000 0.100000 0
0.580000 0.100000 0
0.600000 0.100000 0
0.620000 0.100000 0
0.640000 0.100000 0
0.660000 0.100000 0
0.680000 0.100000 0
0.700000 0.100000 0
0.720000 0.100000 0
0.740000 0.100000 0
0.760000 0.100000 0
0.780000 0.100000 0
0.800000 0.100000 0
0.820000 0.100000 0
0.840000 0.100000 0
0.860000 0.100000 0
0.880000 0.100000 0
0.900000 0.100000 0
0.920000 0.100000 0
0.940000 0.100000 0
0.960000 0.100000 0
0.980000 0.100000 0
1.000000 0.100000 0
0.000000 0.120000 0
0.020000 0.120000 0
0.040000 0.120000 0
0.060000 0.120000 0
0.080000 0.120000 0
0.100000 0.120000 0
0.120000 0.120000 0
0.140000 0.120000 0
0.160000 0.120000 0
0.180000 0.120000 0
0.200000 0.120000 0
0.220000 0.120000 0
0.240000 0.120000 0
0.260000 0.120000 0
0.280000 0.120000 0
0.300000 0.120000 0
0.320000 0.120000 0
0.340000 0.120000 0
0.360000 0.120000 0
0.380000 0.120000 0
0.400000 0.120000 0
0.420000 0.120000 0
0.440000 0.120000 0
0.460000 0.120000 0
0.480000 0.120000 0
0.500000 0.120000 0
0.520000 0.120000 0
0.540000 0.120000 0
0.560000 0.120000 0
0.580000 0.120000 0
0.600000 0.120000 0
0.620000 0.120000 0
0.640000 0.120000 0
0.660000 0.120000 0
0.680000 0.120000 0
0.700000 0.120000 0
0.720000 0.120000 0
0.740000 0.120000 0
0.760000 0.120000 0
0.780000 0.120000 0
0.800000 0.120000 0
0.820000 0.120000 0
0.840000 0.120000 0
0.860000 0.120000 0
0.880000 0.120000 0
0.900000 0.120000 0
0.920000 0.120000 0
0.940000 0.120000 0
0.960000 0.120000 0
0.980000 0.120000 0
1.000000 0.120000 0
0.000000 0.140000 0
0.020000 0.140000 0
0.040000 0.140000 0
0.060000 0.140000 0
0.080000 0.140000 0
0.100000 0.140000 0
0.120000 0.140000 0
0.140000 0.140000 0
0.160000 0.140000 0
0.180000 0.140000 0
0.200000 0.140000 0
0.220000 0.140000 0
0.240000 0.140000 0
0.260000 0.140000 0
0.280000 0.140000 0
0.300000 0.140000 0
0.320000 0.140000 0
0.340000 0.140000 0
0.360000 0.140000 0
0.380000 0.140000 0
0.400000 0.140000 0
0.420000 0.140000 0
0.440000 0.140000 0
0.460000 0.140000 0
0.480000 0.140000 0
0.500000 0.140000 0
0.520000 0.140000 0
0.540000 0.140000 0
0.560000 0.140000 0
0.580000 0.140000 0
0.600000 0.140000 0
0.620000 0.140000 0
0.640000 0.140000 0
0.660000 0.140000 0
0.680000 0.140000 0
0.700000 0.140000 0
0.720000 0.140000 0
0.740000 0.140000 0
0.760000 0.140000 0
0.780000 0.140000 0
0.800000 0.140000 0
0.820000 0.140000 0
0.840000 0.140000 0
0.860000 0.140000 0
0.880000 0.140000 0
0.900000 0.140000 0
0.920000 0.140000 0
0.940000 0.140000 0
0.960000 0.140000 0
0.980000 0.140000 0
1.000000 0.140000 0
0.000000 0.160000 0
0.020000 0.160000 0
0.040000 0.160000 0
0.060000 0.160000 0
0.080000 0.160000 0
0.100000 0.160000 0
0.120000 0.160000 0
0.140000 0.160000 0
0.160000 0.160000 0
0.180000 0.160000 0
0.200000 0.160000 0
0.220000 0.160000 0
0.240000 0.160000 0
0.260000 0.160000 0
0.280000 0.160000 0
0.300000 0.160000 0
0.320000 0.160000 0
0.340000 0.160000 0
0.360000 0.160000 0
0.380000 0.160000 0
0.400000 0.160000 0
0.420000 0.160000 0
0.440000 0.160000 0
0.460000 0.160000 0
0.480000 0.160000 0
0.500000 0.160000 0
0.520000 0.160000 0
0.540000 0.160000 0
0.560000 0.160000 0
0.580000 0.160000 0
0.600000 0.160000 0
0.620000 0.160000 0
0.640000 0.160000 0
0.660000 0.160000 0
0.680000 0.160000 0
0.700000 0.160000 0
0.720000 0.160000 0
0.740000 0.160000 0
0.760000 0.160000 0
0.780000 0.160000 0
0.800000 0.160000 0
0.820000 0.160000 0
0.840000 0.160000 0
0.860000 0.160000 0
0.880000 0.160000 0
0.900000 0.160000 0
0.920000 0.160000 0
0.940000 0.160000 0
0.960000 0.160000 0
0.980000 0.160000 0
1.000000 0.160000 0
0.000000 0.180000 0
0.020000 0.180000 0
0.040000 0.180000 0
0.060000 0.180000 0
0.080000 0.180000 0
0.100000 0.180000 0
0.120000 0.180000 0
0.140000 0.180000 0
0.160000 0.180000 0
0.180000 0.180000 0
0.200000 0.180000 0
0.220000 0.180000 0
0.240000 0.180000 0
0.260000 0.180000 0
0.280000 0.180000 0
0.300000 0.180000 0
0.320000 0.180000 0
0.340000 0.180000 0
0.360000 0.180000 0
0.380000 0.180000 0
0.400000 0.180000 0
0.420000 0.180000 0
0.440000 0.180000 0
0.460000 0.180000 0
0.480000 0.180000 0
0.500000 0.180000 0
0.520000 0.180000 0
0.540000 0.180000 0
0.560000 0.180000 0
0.580000 0.180000 0
0.600000 0.180000 0
0.620000 0.180000 0
[...]
POINT_DATA 2601 

VECTORS velocity float
0.000000 0.000000 0
0.000000 0.000000 0
-0.000000 0.000000 0
-0.000001 0.000000 0
-0.000001 0.000000 0
-0.000001 0.000000 0
-0.000002 0.000000 0
-0.000003 0.000000 0
-0.000003 0.000000 0
-0.000003 0.000000 0
-0.000004 0.000000 0
-0.000004 0.000000 0
-0.000005 0.000000 0
-0.000005 0.000000 0
-0.000005 0.000000 0
-0.000005 0.000000 0
-0.000004 0.000000 0
-0.000003 0.000000 0
-0.000002 0.000000 0
-0.000001 0.000000 0
-0.000000 0.000000 0
0.000000 0.000000 0
0.000001 0.000000 0
0.000001 0.000000 0
0.000002 0.000000 0
0.000002 0.000000 0
0.000002 0.000000 0
0.000002 0.000000 0
0.000002 0.000000 0
0.000002 0.000000 0
0.000002 0.000000 0
0.000002 0.000000 0
0.000002 0.000000 0
0.000002 0.000000 0
0.000001 0.000000 0
0.000001 0.000000 0
0.000001 0.000000 0
0.000001 0.000000 0
0.000001 0.000000 0
0.000001 0.000000 0
0.000001 0.000000 0
0.000000 0.000000 0
0.000000 0.000000 0
0.000000 0.000000 0
0.000000 0.000000 0
0.000000 0.000000 0
0.000000 0.000000 0
0.000000 0.000000 0
0.000000 0.000000 0
0.000000 0.000000 0
0.000000 0.000000 0
0.000000 0.000000 0
-0.001818 0.001915 0
-0.007044 0.003732 0
-0.013781 0.004114 0
-0.019973 0.003243 0
-0.024325 0.001755 0
-0.026363 0.000139 0
-0.026050 -0.001429 0
-0.023463 -0.002930 0
-0.018689 -0.004351 0
-0.011837 -0.005644 0
-0.003084 -0.006685 0
0.007276 -0.007400 0
0.018730 -0.007737 0
0.030706 -0.007633 0
0.042601 -0.007076 0
0.053729 -0.006103 0
0.063479 -0.004810 0
0.071310 -0.003321 0
0.076858 -0.001782 0
0.079964 -0.000335 0
0.080679 0.000949 0
0.079261 0.002050 0
0.076041 0.002950 0
0.071374 0.003647 0
0.065622 0.004136 0
0.059146 0.004420 0
0.052291 0.004501 0
0.045381 0.004394 0
0.038698 0.004127 0
0.032471 0.003736 0
0.026864 0.003268 0
0.021974 0.002767 0
0.017830 0.002274 0
0.014409 0.001819 0
0.011646 0.001423 0
0.009455 0.001094 0
0.007734 0.000834 0
0.006385 0.000639 0
0.005313 0.000501 0
0.004438 0.000410 0
0.003693 0.000356 0
0.003028 0.000327 0
0.002410 0.000313 0
0.001824 0.000300 0
0.001275 0.000278 0
0.000785 0.000236 0
0.000386 0.000168 0
0.000116 0.000079 0
-0.000004 -0.000003 0
0.000000 -0.000000 0
0.000000 0.000000 0
-0.003717 0.007043 0
-0.012395 0.011963 0
-0.023113 0.012928 0
-0.033114 0.010543 0
-0.040650 0.006388 0
-0.045003 0.001723 0
-0.046043 -0.002901 0
-0.043885 -0.007361 0
-0.038662 -0.011626 0
-0.030515 -0.015606 0
-0.019622 -0.019114 0
-0.006211 -0.021815 0
0.009297 -0.023433 0
0.026333 -0.023874 0
0.044116 -0.023024 0
0.061805 -0.020880 0
0.078527 -0.017582 0
0.093301 -0.013380 0
0.105287 -0.008656 0
0.113801 -0.003823 0
0.118444 0.000702 0
0.119238 0.004637 0
0.116613 0.007886 0
0.111204 0.010418 0
0.103675 0.012227 0
0.094675 0.013330 0
0.084813 0.013765 0
0.074638 0.013593 0
0.064619 0.012910 0
0.055131 0.011833 0
0.046446 0.010497 0
0.038733 0.009035 0
0.032067 0.007565 0
0.026442 0.006184 0
0.021790 0.004954 0
0.018000 0.003912 0
0.014940 0.003070 0
0.012470 0.002421 0
0.010455 0.001947 0
0.008774 0.001620 0
0.007324 0.001410 0
0.006029 0.001284 0
0.004835 0.001204 0
0.003718 0.001135 0
0.002680 0.001040 0
0.001750 0.000890 0
0.000974 0.000669 0
0.000405 0.000390 0
0.000082 0.000116 0
0.000000 0.000000 0
0.000000 -0.000000 0
-0.004874 0.014309 0
-0.015754 0.023127 0
-0.029044 0.024832 0
-0.041687 0.020779 0
-0.051804 0.013643 0
-0.058613 0.005531 0
-0.061966 -0.002546 0
-0.062014 -0.010310 0
-0.058948 -0.017722 0
-0.052936 -0.024685 0
-0.044133 -0.030990 0
-0.032698 -0.036320 0
-0.018737 -0.040281 0
-0.002492 -0.042453 0
0.015631 -0.042548 0
0.035112 -0.040514 0
0.055090 -0.036307 0
0.074568 -0.030081 0
0.092496 -0.022283 0
0.107652 -0.013493 0
0.118949 -0.004488 0
0.125667 0.003881 0
0.127517 0.010984 0
0.125095 0.016585 0
0.119321 0.020665 0
0.111104 0.023282 0
0.101303 0.024537 0
0.090679 0.024588 0
0.079864 0.023634 0
0.069355 0.021910 0
0.059518 0.019666 0
0.050594 0.017146 0
0.042710 0.014565 0
0.035904 0.012097 0
0.030135 0.009865 0
0.025313 0.007943 0
0.021313 0.006364 0
0.017995 0.005124 0
0.015218 0.004198 0
0.012850 0.003541 0
0.010780 0.003101 0
0.008918 0.002817 0
0.007204 0.002624 0
0.005606 0.002455 0
0.004122 0.002246 0
0.002780 0.001942 0
0.001634 0.001513 0
0.000750 0.000971 0
0.000191 0.000402 0
0.000000 0.000000 0
0.000000 0.000000 0
-0.005413 0.022796 0
-0.017506 0.036131 0
-0.032408 0.038861 0
-0.046955 0.033303 0
-0.059224 0.023314 0
-0.068425 0.011885 0
-0.074417 0.000501 0
-0.077324 -0.010380 0
-0.077398 -0.020706 0
-0.074831 -0.030422 0
-0.069752 -0.039353 0
-0.062250 -0.047212 0
-0.052372 -0.053638 0
-0.040131 -0.058242 0
-0.025517 -0.060629 0
-0.008658 -0.060339 0
0.010083 -0.057039 0
0.030260 -0.050787 0
0.050982 -0.041741 0
0.070960 -0.030276 0
0.088828 -0.017313 0
0.103256 -0.003931 0
0.112823 0.008458 0
0.116807 0.018614 0
0.116031 0.026217 0
0.111551 0.031348 0
0.104460 0.034190 0
0.095739 0.035033 0
0.086190 0.034234 0
0.076446 0.032179 0
0.066978 0.029258 0
0.058112 0.025843 0
0.050051 0.022256 0
0.042893 0.018759 0
0.036655 0.015544 0
0.031292 0.012734 0
0.026716 0.010388 0
0.022814 0.008517 0
0.019464 0.007092 0
0.016547 0.006058 0
0.013957 0.005342 0
0.011607 0.004860 0
0.009437 0.004517 0
0.007411 0.004217 0
0.005523 0.003865 0
0.003801 0.003377 0
0.002300 0.002700 0
0.001101 0.001834 0
0.000301 0.000866 0
0.000000 0.000000 0
0.000000 0.000000 0
-0.005523 0.031814 0
-0.018056 0.050122 0
-0.033809 0.054279 0
-0.049660 0.047594 0
-0.063662 0.035114 0
-0.074990 0.020724 0
-0.083484 0.006354 0
-0.089237 -0.007330 0
-0.092466 -0.020217 0
-0.093396 -0.032331 0
-0.092151 -0.043571 0
-0.088788 -0.053700 0
-0.083316 -0.062400 0
-0.075701 -0.069308 0
-0.065894 -0.074022 0
-0.053833 -0.076115 0
-0.039398 -0.075226 0
-0.022582 -0.070981 0
-0.003725 -0.062984 0
0.016654 -0.051341 0
0.037714 -0.036784 0
0.057922 -0.020115 0
0.075360 -0.002567 0
0.088238 0.013377 0
0.095279 0.025922 0
0.097206 0.034852 0
0.095277 0.040349 0
0.090642 0.042858 0
0.084245 0.042928 0
0.076876 0.041122 0
0.069134 0.038000 0
0.061453 0.034074 0
0.054133 0.029785 0
0.047364 0.025493 0
0.041242 0.021465 0
0.035792 0.017882 0
0.030986 0.014842 0
0.026761 0.012376 0
0.023035 0.010465 0
0.019717 0.009048 0
0.016724 0.008040 0
0.013980 0.007336 0
0.011432 0.006821 0
0.009045 0.006369 0
0.006812 0.005855 0
0.004756 0.005166 0
0.002933 0.004213 0
0.001439 0.002971 0
0.000407 0.001503 0
0.000000 0.000000 0
0.000000 0.000001 0
-0.005339 0.040851 0
-0.017718 0.064417 0
-0.033693 0.070464 0
-0.050315 0.063155 0
-0.065619 0.048645 0
-0.078699 0.031708 0
-0.089349 0.014747 0
-0.097639 -0.001399 0
-0.103690 -0.016548 0
-0.107724 -0.030738 0
-0.109898 -0.043961 0
-0.110273 -0.056047 0
-0.108852 -0.066725 0
-0.105596 -0.075665 0
-0.100432 -0.082499 0
-0.093248 -0.086836 0
-0.083894 -0.088291 0
-0.072252 -0.086461 0
-0.058156 -0.080978 0
-0.041422 -0.071716 0
-0.022238 -0.058583 0
-0.001382 -0.041578 0
0.020094 -0.021858 0
0.040664 -0.001306 0
0.057401 0.017249 0
0.067955 0.031350 0
0.073482 0.040755 0
0.075054 0.046065 0
0.073663 0.048000 0
0.070266 0.047290 0
0.065598 0.044682 0
0.060222 0.040844 0
0.054564 0.036345 0
0.048931 0.031651 0
0.043524 0.027117 0
0.038462 0.022990 0
0.033799 0.019419 0
0.029543 0.016468 0
0.025668 0.014136 0
0.022131 0.012369 0
0.018881 0.011079 0
0.015867 0.010151 0
0.013047 0.009452 0
0.010394 0.008837 0
0.007899 0.008155 0
0.005581 0.007257 0
0.003495 0.006017 0
0.001748 0.004360 0
0.000507 0.002305 0
0.000000 0.000000 0
0.000000 0.000001 0
-0.004958 0.049531 0
-0.016738 0.078476 0
-0.032415 0.086876 0
-0.049329 0.079520 0
-0.065516 0.063499 0
-0.079959 0.044454 0
-0.092369 0.025293 0
-0.102782 0.007011 0
-0.111288 -0.010133 0
-0.118007 -0.026124 0
-0.123144 -0.041021 0
-0.126787 -0.054745 0
-0.128951 -0.067078 0
-0.129598 -0.077729 0
-0.128653 -0.086371 0
-0.125997 -0.092654 0
-0.121472 -0.096223 0
-0.114884 -0.096720 0
-0.105973 -0.093816 0
-0.094459 -0.087260 0
-0.080191 -0.076825 0
-0.062995 -0.062447 0
-0.042810 -0.044613 0
-0.020503 -0.023930 0
0.002343 -0.001371 0
0.022669 0.018771 0
0.037799 0.033250 0
0.047620 0.042676 0
0.053101 0.047716 0
0.055363 0.049187 0
0.055218 0.048044 0
0.053366 0.045108 0
0.050388 0.041076 0
0.046736 0.036533 0
0.042736 0.031935 0
0.038624 0.027608 0
0.034559 0.023761 0
0.030641 0.020507 0
0.026919 0.017877 0
0.023410 0.015836 0
0.020110 0.014305 0
0.017002 0.013170 0
0.014068 0.012293 0
0.011289 0.011517 0
0.008658 0.010669 0
0.006190 0.009570 0
0.003936 0.008046 0
0.002008 0.005959 0
0.000598 0.003252 0
0.000000 0.000000 0
0.000000 0.000001 0
-0.004450 0.057587 0
-0.015311 0.091874 0
-0.030272 0.103056 0
-0.047052 0.096256 0
-0.063731 0.079275 0
-0.079165 0.058560 0
-0.092953 0.037569 0
-0.105098 0.017521 0
-0.115702 -0.001322 0
-0.124794 -0.018882 0
-0.132521 -0.035181 0
-0.139036 -0.050240 0
-0.144367 -0.063915 0
-0.148482 -0.075963 0
-0.151302 -0.086100 0
-0.152706 -0.094018 0
-0.152528 -0.099406 0
-0.150561 -0.101960 0
-0.146537 -0.101404 0
-0.140146 -0.097500 0
-0.131059 -0.090047 0
-0.118876 -0.078959 0
-0.103268 -0.064350 0
-0.084287 -0.046459 0
-0.062079 -0.025923 0
-0.037317 -0.004106 0
-0.013766 0.015803 0
0.005635 0.030763 0
0.019976 0.040257 0
0.029815 0.045173 0
0.035840 0.046678 0
0.038949 0.045673 0
0.039887 0.042975 0
0.039263 0.039304 0
0.037550 0.035229 0
0.035124 0.031167 0
0.032273 0.027402 0
0.029207 0.024109 0
0.026069 0.021367 0
0.022952 0.019179 0
0.019914 0.017487 0
0.016983 0.016193 0
0.014171 0.015166 0
0.011477 0.014247 0
0.008901 0.013254 0
0.006454 0.011979 0
0.004178 0.010199 0
0.002181 0.007698 0
0.000672 0.004312 0
0.000000 0.000000 0
0.000000 0.000001 0
-0.003872 0.064841 0
-0.013601 0.104297 0
-0.027518 0.118617 0
-0.043794 0.112979 0
-0.060609 0.095611 0
-0.076696 0.073675 0
-0.091530 0.051226 0
-0.105063 0.029760 0
-0.117398 0.009563 0
-0.128600 -0.009304 0
-0.138646 -0.026779 0
-0.147709 -0.042900 0
-0.155852 -0.057632 0
-0.163048 -0.070794 0
-0.169212 -0.082148 0
-0.174211 -0.091429 0
-0.177871 -0.098369 0
-0.179976 -0.102712 0
-0.180263 -0.104231 0
-0.178430 -0.102738 0
-0.174126 -0.098095 0
-0.166939 -0.090239 0
-0.156456 -0.079203 0
-0.142335 -0.065119 0
-0.124281 -0.048341 0
-0.102351 -0.029542 0
-0.077240 -0.009703 0
-0.051650 0.008934 0
-0.028518 0.023536 0
-0.009988 0.033323 0
0.003911 0.038910 0
0.013796 0.041060 0
0.020283 0.040762 0
0.024079 0.038870 0
0.025853 0.036073 0
0.026144 0.032885 0
0.025388 0.029679 0
0.023930 0.026711 0
0.022021 0.024131 0
0.019849 0.021991 0
0.017549 0.020274 0
0.015209 0.018913 0
0.012880 0.017799 0
0.010590 0.016787 0
0.008353 0.015693 0
0.006178 0.014294 0
0.004098 0.012319 0
0.002206 0.009465 0
0.000709 0.005433 0
0.000000 0.000000 0
0.000000 0.000001 0
-0.003266 0.071187 0
-0.011741 0.115521 0
-0.024374 0.133249 0
-0.039830 0.129347 0
-0.056460 0.112177 0
-0.072901 0.089480 0
-0.088481 0.065935 0
-0.103086 0.043389 0
-0.116823 0.022216 0
-0.129802 0.002366 0
-0.141985 -0.016071 0
-0.153334 -0.033035 0
-0.163975 -0.048577 0
-0.173902 -0.062604 0
-0.183023 -0.074937 0
-0.191191 -0.085359 0
-0.198212 -0.093642 0
-0.203855 -0.099569 0
-0.207853 -0.102949 0
-0.209911 -0.103637 0
-0.209700 -0.101539 0
-0.206861 -0.096630 0
-0.201014 -0.088954 0
-0.191778 -0.078635 0
-0.178788 -0.065907 0
-0.161825 -0.051147 0
-0.140938 -0.034898 0
-0.116561 -0.017960 0
-0.090547 -0.001406 0
-0.065557 0.012744 0
-0.043576 0.022893 0
-0.025846 0.029301 0
-0.012278 0.032693 0
-0.002353 0.033733 0
0.004544 0.033164 0
0.009019 0.031632 0
0.011649 0.029615 0
0.012910 0.027475 0
0.013189 0.025448 0
0.012792 0.023651 0
0.011949 0.022128 0
0.010822 0.020862 0
0.009519 0.019784 0
0.008106 0.018774 0
0.006623 0.017667 0
0.005086 0.016234 0
0.003519 0.014171 0
0.001990 0.011087 0
0.000683 0.006519 0
0.000000 0.000000 0
0.000000 0.000001 0
-0.002664 0.076581 0
-0.009837 0.125406 0
-0.021028 0.146707 0
-0.035407 0.145065 0
-0.051565 0.128681 0
-0.068090 0.105696 0
-0.084159 0.081412 0
-0.099561 0.058102 0
-0.114395 0.036279 0
-0.128793 0.015858 0
-0.142803 -0.003248 0
-0.156256 -0.020911 0
-0.169129 -0.037065 0
-0.181465 -0.051747 0
-0.193181 -0.064859 0
-0.204123 -0.076239 0
-0.214076 -0.085704 0
-0.222786 -0.093071 0
-0.229970 -0.098175 0
-0.235323 -0.100892 0
-0.238534 -0.101146 0
-0.239284 -0.098926 0
-0.237263 -0.094285 0
-0.232169 -0.087345 0
-0.223720 -0.078295 0
-0.211701 -0.067392 0
-0.196008 -0.054967 0
-0.176728 -0.041458 0
-0.154269 -0.027468 0
-0.129450 -0.013648 0
-0.104319 -0.000802 0
-0.080774 0.009762 0
-0.060101 0.017269 0
-0.043037 0.022048 0
-0.029612 0.024702 0
-0.019373 0.025780 0
-0.011776 0.025787 0
-0.006307 0.025170 0
-0.002501 0.024250 0
0.000059 0.023232 0
0.001707 0.022244 0
0.002693 0.021344 0
0.003196 0.020515 0
0.003338 0.019683 0
0.003197 0.018714 0
0.002812 0.017398 0
0.002200 0.015415 0
0.001402 0.012302 0
0.000548 0.007423 0
0.000000 0.000000 0
0.000000 0.000001 0
-0.002092 0.081024 0
-0.007975 0.133885 0
-0.017639 0.158819 0
-0.030741 0.159884 0
-0.046175 0.144860 0
-0.062540 0.122074 0
-0.078867 0.097407 0
-0.094826 0.073627 0
-0.110476 0.051448 0
-0.125967 0.030774 0
-0.141378 0.011392 0
-0.156659 -0.006709 0
-0.171565 -0.023369 0
-0.186022 -0.038552 0
-0.199993 -0.052279 0
-0.213333 -0.064465 0
-0.225820 -0.074979 0
-0.237183 -0.083675 0
-0.247115 -0.090412 0
-0.255295 -0.095073 0
-0.261404 -0.097578 0
-0.265137 -0.097900 0
-0.266225 -0.096070 0
-0.264437 -0.092178 0
-0.259589 -0.086375 0
-0.251556 -0.078859 0
-0.240274 -0.069871 0
-0.225768 -0.059699 0
-0.208198 -0.048684 0
-0.187944 -0.037206 0
-0.165544 -0.025783 0
-0.141870 -0.014917 0
-0.118456 -0.005045 0
-0.096599 0.003245 0
-0.077122 0.009500 0
-0.060466 0.013796 0
-0.046734 0.016550 0
-0.035717 0.018200 0
-0.026977 0.019081 0
-0.020085 0.019443 0
-0.014670 0.019494 0
-0.010421 0.019374 0
-0.007094 0.019139 0
-0.004502 0.018773 0
-0.002516 0.018193 0
-0.001067 0.017231 0
-0.000135 0.015581 0
0.000286 0.012740 0
0.000249 0.007921 0
0.000000 0.000000 0
0.000000 0.000002 0
-0.001564 0.084556 0
-0.006218 0.140953 0
-0.014335 0.169473 0
-0.026020 0.173601 0
-0.040511 0.160480 0
-0.056491 0.138389 0
-0.072870 0.113699 0
-0.089171 0.089712 0
-0.105384 0.067420 0
-0.121657 0.046760 0
-0.138102 0.027444 0
-0.154735 0.009276 0
-0.171382 -0.007702 0
-0.187745 -0.023319 0
-0.203665 -0.037548 0
-0.219046 -0.050412 0
-0.233689 -0.061854 0
-0.247319 -0.071776 0
-0.259620 -0.080062 0
-0.270256 -0.086603 0
-0.278888 -0.091304 0
-0.285199 -0.094104 0
-0.288922 -0.094985 0
-0.289846 -0.093980 0
-0.287834 -0.091176 0
-0.282824 -0.086708 0
-0.274822 -0.080755 0
-0.263904 -0.073534 0
-0.250212 -0.065292 0
-0.233969 -0.056302 0
-0.215476 -0.046876 0
-0.195228 -0.037326 0
-0.173773 -0.028002 0
-0.151776 -0.019286 0
-0.130120 -0.011431 0
-0.109700 -0.004608 0
-0.091108 0.001039 0
-0.074625 0.005414 0
-0.060313 0.008617 0
-0.048103 0.010925 0
-0.037815 0.012580 0
-0.029209 0.013767 0
-0.022002 0.014596 0
-0.015974 0.015105 0
-0.010964 0.015279 0
-0.006887 0.015017 0
-0.003718 0.014062 0
-0.001494 0.011918 0
-0.000269 0.007709 0
0.000000 -0.000000 0
0.000000 0.000002 0
-0.001092 0.087242 0
-0.004608 0.146656 0
-0.011215 0.178620 0
-0.021398 0.186060 0
-0.034765 0.175332 0
-0.050153 0.154433 0
-0.066390 0.130087 0
-0.082844 0.106141 0
-0.099404 0.083934 0
-0.116191 0.063492 0
-0.133331 0.044470 0
-0.150863 0.026571 0
-0.168721 0.009642 0
-0.186654 -0.006270 0
-0.204308 -0.020978 0
-0.221416 -0.034440 0
-0.237857 -0.046706 0
-0.253381 -0.057743 0
-0.267693 -0.067474 0
-0.280456 -0.075806 0
-0.291318 -0.082635 0
-0.299941 -0.087866 0
-0.306029 -0.091423 0
-0.309349 -0.093265 0
-0.309751 -0.093397 0
-0.307172 -0.091871 0
-0.301640 -0.088791 0
-0.293261 -0.084310 0
-0.282212 -0.078618 0
-0.268722 -0.071941 0
-0.253067 -0.064524 0
-0.235575 -0.056621 0
-0.216597 -0.048496 0
-0.196568 -0.040408 0
-0.175984 -0.032576 0
-0.155321 -0.025217 0
-0.135044 -0.018525 0
-0.115607 -0.012595 0
-0.097457 -0.007440 0
-0.080867 -0.003054 0
-0.065937 0.000600 0
-0.052658 0.003560 0
-0.040959 0.005904 0
-0.030758 0.007736 0
-0.021980 0.009106 0
-0.014573 0.009984 0
-0.008531 0.010189 0
-0.003947 0.009291 0
-0.001017 0.006427 0
0.000000 -0.000001 0
0.000000 0.000002 0
-0.000681 0.089164 0
-0.003174 0.151076 0
-0.008350 0.186262 0
-0.017001 0.197151 0
-0.029100 0.189235 0
-0.043705 0.170015 0
-0.059618 0.146390 0
-0.076054 0.122726 0
-0.092773 0.100766 0
-0.109842 0.080687 0
-0.127384 0.062115 0
-0.145451 0.044666 0
-0.164000 0.028090 0
-0.182903 0.012268 0
-0.201872 -0.002785 0
-0.220507 -0.016862 0
-0.238445 -0.029888 0
-0.255516 -0.041939 0
-0.271480 -0.052988 0
-0.286039 -0.062978 0
-0.298850 -0.071819 0
-0.309561 -0.079393 0
-0.317841 -0.085577 0
-0.323412 -0.090258 0
-0.326067 -0.093353 0
-0.325695 -0.094819 0
-0.322279 -0.094666 0
-0.315904 -0.092962 0
-0.306742 -0.089830 0
-0.295038 -0.085447 0
-0.281089 -0.080023 0
-0.265225 -0.073796 0
-0.247785 -0.067009 0
-0.229125 -0.059898 0
-0.209594 -0.052678 0
-0.189529 -0.045548 0
-0.169284 -0.038676 0
-0.149213 -0.032172 0
-0.129623 -0.026122 0
-0.110779 -0.020596 0
-0.092899 -0.015630 0
-0.076163 -0.011210 0
-0.060740 -0.007303 0
-0.046738 -0.003874 0
-0.034238 -0.000906 0
-0.023314 0.001568 0
-0.014095 0.003436 0
-0.006823 0.004404 0
-0.001915 0.003762 0
0.000000 -0.000001 0
0.000000 0.000002 0
-0.000333 0.090415 0
-0.001928 0.154324 0
-0.005786 0.192446 0
-0.012923 0.206810 0
-0.023654 0.202037 0
-0.037302 0.184952 0
-0.052712 0.162435 0
-0.068966 0.139295 0
-0.085676 0.117722 0
-0.102830 0.098103 0
-0.120524 0.080078 0
-0.138817 0.063187 0
-0.157681 0.047094 0
-0.177010 0.031603 0
-0.196630 0.016627 0
-0.216267 0.002133 0
-0.235456 -0.011697 0
-0.253826 -0.024708 0
-0.271112 -0.036951 0
-0.287122 -0.048435 0
-0.301568 -0.059113 0
-0.314112 -0.068875 0
-0.324404 -0.077572 0
-0.332119 -0.085039 0
-0.336982 -0.091113 0
-0.338798 -0.095659 0
-0.337470 -0.098582 0
-0.333005 -0.099847 0
-0.325521 -0.099484 0
-0.315232 -0.097593 0
-0.302434 -0.094336 0
-0.287479 -0.089924 0
-0.270741 -0.084597 0
-0.252601 -0.078600 0
-0.233421 -0.072172 0
-0.213532 -0.065526 0
-0.193244 -0.058842 0
-0.172834 -0.052255 0
-0.152545 -0.045874 0
-0.132598 -0.039778 0
-0.113209 -0.034016 0
-0.094579 -0.028599 0
-0.076890 -0.023521 0
-0.060315 -0.018766 0
-0.045033 -0.014318 0
-0.031260 -0.010158 0
-0.019296 -0.006302 0
-0.009579 -0.002890 0
-0.002794 -0.000396 0
0.000000 -0.000002 0
0.000000 0.000002 0
-0.000051 0.091092 0
-0.000876 0.156528 0
-0.003546 0.197256 0
-0.009230 0.215019 0
-0.018532 0.213615 0
-0.031073 0.199073 0
-0.045803 0.178053 0
-0.061714 0.155690 0
-0.078261 0.134630 0
-0.095324 0.115534 0
-0.112957 0.098102 0
-0.131213 0.081823 0
-0.150076 0.066284 0
-0.169457 0.051218 0
-0.189209 0.036472 0
-0.209127 0.021964 0
-0.228974 0.007671 0
-0.248303 -0.006283 0
-0.266706 -0.019690 0
-0.283841 -0.032521 0
-0.299572 -0.044829 0
-0.313630 -0.056556 0
-0.325683 -0.067570 0
-0.335380 -0.077680 0
-0.342386 -0.086673 0
-0.346422 -0.094330 0
-0.347286 -0.100459 0
-0.344880 -0.104911 0
-0.339222 -0.107603 0
-0.330448 -0.108532 0
-0.318805 -0.107776 0
-0.304632 -0.105490 0
-0.288325 -0.101886 0
-0.270309 -0.097218 0
-0.251003 -0.091747 0
-0.230797 -0.085726 0
-0.210037 -0.079374 0
-0.189021 -0.072872 0
-0.167995 -0.066358 0
-0.147171 -0.059932 0
-0.126743 -0.053649 0
-0.106886 -0.047529 0
-0.087773 -0.041567 0
-0.069585 -0.035730 0
-0.052537 -0.029961 0
-0.036908 -0.024170 0
-0.023081 -0.018244 0
-0.011629 -0.012097 0
-0.003453 -0.005817 0
0.000000 -0.000002 0
0.000000 0.000002 0
0.000181 0.091291 0
-0.000016 0.157819 0
-0.001636 0.200800 0
-0.005958 0.221797 0
-0.013814 0.223880 0
-0.025123 0.212223 0
-0.039004 0.193076 0
-0.054406 0.171753 0
-0.070639 0.151332 0
-0.087453 0.132799 0
-0.104840 0.115968 0
-0.122836 0.100307 0
-0.141429 0.085339 0
-0.160545 0.070737 0
-0.180060 0.056298 0
-0.199812 0.041899 0
-0.219607 0.027480 0
-0.239215 0.013025 0
-0.258271 -0.001412 0
-0.276331 -0.015568 0
-0.293022 -0.029324 0
-0.308221 -0.042764 0
-0.321695 -0.055821 0
-0.333112 -0.068335 0
-0.342105 -0.080071 0
-0.348325 -0.090759 0
-0.351473 -0.100123 0
-0.351334 -0.107911 0
-0.347799 -0.113916 0
-0.340886 -0.118009 0