# vtk DataFile Version 2.0
generated by CFD-lab course output (written by Tobias Neckel) 
ASCII

DATASET STRUCTURED_GRID
DIMENSIONS  51 51 1 
POINTS 2601 float

0.000000 0.000000 0
0.020000 0.000000 0
0.040000 0.000000 0
0.060000 0.000000 0
0.080000 0.000000 0
0.100000 0.000000 0
0.120000 0.000000 0
0.140000 0.000000 0
0.160000 0.000000 0
0.180000 0.000000 0
0.200000 0.000000 0
0.220000 0.000000 0
0.240000 0.000000 0
0.260000 0.000000 0
0.280000 0.000000 0
0.300000 0.000000 0
0.320000 0.000000 0
0.340000 0.000000 0
0.360000 0.000000 0
0.380000 0.000000 0
0.400000 0.000000 0
0.420000 0.000000 0
0.440000 0.000000 0
0.460000 0.000000 0
0.480000 0.000000 0
0.500000 0.000000 0
0.520000 0.000000 0
0.540000 0.000000 0
0.560000 0.000000 0
0.580000 0.000000 0
0.600000 0.000000 0
0.620000 0.000000 0
0.640000 0.000000 0
0.660000 0.000000 0
0.680000 0.000000 0
0.700000 0.000000 0
0.720000 0.000000 0
0.740000 0.000000 0
0.760000 0.000000 0
0.780000 0.000000 0
0.800000 0.000000 0
0.820000 0.000000 0
0.840000 0.000000 0
0.860000 0.000000 0
0.880000 0.000000 0
0.900000 0.000000 0
0.920000 0.000000 0
0.940000 0.000000 0
0.960000 0.000000 0
0.980000 0.000000 0
1.000000 0.000000 0
0.000000 0.020000 0
0.020000 0.020000 0
0.040000 0.020000 0
0.060000 0.020000 0
0.080000 0.020000 0
0.100000 0.020000 0
0.120000 0.020000 0
0.140000 0.020000 0
0.160000 0.020000 0
0.180000 0.020000 0
0.200000 0.020000 0
0.220000 0.020000 0
0.240000 0.020000 0
0.260000 0.020000 0
0.280000 0.020000 0
0.300000 0.020000 0
0.320000 0.020000 0
0.340000 0.020000 0
0.360000 0.020000 0
0.380000 0.020000 0
0.400000 0.020000 0
0.420000 0.020000 0
0.440000 0.020000 0
0.460000 0.020000 0
0.480000 0.020000 0
0.500000 0.020000 0
0.520000 0.020000 0
0.540000 0.020000 0
0.560000 0.020000 0
0.580000 0.020000 0
0.600000 0.020000 0
0.620000 0.020000 0
0.640000 0.020000 0
0.660000 0.020000 0
0.680000 0.020000 0
0.700000 0.020000 0
0.720000 0.020000 0
0.740000 0.020000 0
0.760000 0.020000 0
0.780000 0.020000 0
0.800000 0.020000 0
0.820000 0.020000 0
0.840000 0.020000 0
0.860000 0.020000 0
0.880000 0.020000 0
0.900000 0.020000 0
0.920000 0.020000 0
0.940000 0.020000 0
0.960000 0.020000 0
0.980000 0.020000 0
1.000000 0.020000 0
0.000000 0.040000 0
0.020000 0.040000 0
0.040000 0.040000 0
0.060000 0.040000 0
0.080000 0.040000 0
0.100000 0.040000 0
0.120000 0.040000 0
0.140000 0.040000 0
0.160000 0.040000 0
0.180000 0.040000 0
0.200000 0.040000 0
0.220000 0.040000 0
0.240000 0.040000 0
0.260000 0.040000 0
0.280000 0.040000 0
0.300000 0.040000 0
0.320000 0.040000 0
0.340000 0.040000 0
0.360000 0.040000 0
0.380000 0.040000 0
0.400000 0.040000 0
0.420000 0.040000 0
0.440000 0.040000 0
0.460000 0.040000 0
0.480000 0.040000 0
0.500000 0.040000 0
0.520000 0.040000 0
0.540000 0.040000 0
0.560000 0.040000 0
0.580000 0.040000 0
0.600000 0.040000 0
0.620000 0.040000 0
0.640000 0.040000 0
0.660000 0.040000 0
0.680000 0.040000 0
0.700000 0.040000 0
0.720000 0.040000 0
0.740000 0.040000 0
0.760000 0.040000 0
0.780000 0.040000 0
0.800000 0.040000 0
0.820000 0.040000 0
0.840000 0.040000 0
0.860000 0.040000 0
0.880000 0.040000 0
0.900000 0.040000 0
0.920000 0.040000 0
0.940000 0.040000 0
0.960000 0.040000 0
0.980000 0.040000 0
1.000000 0.040000 0
0.000000 0.060000 0
0.020000 0.060000 0
0.040000 0.060000 0
0.060000 0.060000 0
0.080000 0.060000 0
0.100000 0.060000 0
0.120000 0.060000 0
0.140000 0.060000 0
0.160000 0.060000 0
0.180000 0.060000 0
0.200000 0.060000 0
0.220000 0.060000 0
0.240000 0.060000 0
0.260000 0.060000 0
0.280000 0.060000 0
0.300000 0.060000 0
0.320000 0.060000 0
0.340000 0.060000 0
0.360000 0.060000 0
0.380000 0.060000 0
0.400000 0.060000 0
0.420000 0.060000 0
0.440000 0.060000 0
0.460000 0.060000 0
0.480000 0.060000 0
0.500000 0.060000 0
0.520000 0.060000 0
0.540000 0.060000 0
0.560000 0.060000 0
0.580000 0.060000 0
0.600000 0.060000 0
0.620000 0.060000 0
0.640000 0.060000 0
0.660000 0.060000 0
0.680000 0.060000 0
0.700000 0.060000 0
0.720000 0.060000 0
0.740000 0.060000 0
0.760000 0.060000 0
0.780000 0.060000 0
0.800000 0.060000 0
0.820000 0.060000 0
0.840000 0.060000 0
0.860000 0.060000 0
0.880000 0.060000 0
0.900000 0.060000 0
0.920000 0.060000 0
0.940000 0.060000 0
0.960000 0.060000 0
0.980000 0.060000 0
1.000000 0.060000 0
0.000000 0.080000 0
0.020000 0.080000 0
0.040000 0.080000 0
0.060000 0.080000 0
0.080000 0.080000 0
0.100000 0.080000 0
0.120000 0.080000 0
0.140000 0.080000 0
0.160000 0.080000 0
0.180000 0.080000 0
0.200000 0.080000 0
0.220000 0.080000 0
0.240000 0.080000 0
0.260000 0.080000 0
0.280000 0.080000 0
0.300000 0.080000 0
0.320000 0.080000 0
0.340000 0.080000 0
0.360000 0.080000 0
0.380000 0.080000 0
0.400000 0.080000 0
0.420000 0.080000 0
0.440000 0.080000 0
0.460000 0.080000 0
0.480000 0.080000 0
0.500000 0.080000 0
0.520000 0.080000 0
0.540000 0.080000 0
0.560000 0.080000 0
0.580000 0.080000 0
0.600000 0.080000 0
0.620000 0.080000 0
0.640000 0.080000 0
0.660000 0.080000 0
0.680000 0.080000 0
0.700000 0.080000 0
0.720000 0.080000 0
0.740000 0.080000 0
0.760000 0.080000 0
0.780000 0.080000 0
0.800000 0.080000 0
0.820000 0.080000 0
0.840000 0.080000 0
0.860000 0.080000 0
0.880000 0.080000 0
0.900000 0.080000 0
0.920000 0.080000 0
0.940000 0.080000 0
0.960000 0.080000 0
0.980000 0.080000 0
1.000000 0.080000 0
0.000000 0.100000 0
0.020000 0.100000 0
0.040000 0.100000 0
0.060000 0.100000 0
0.080000 0.100000 0
0.100000 0.100000 0
0.120000 0.100000 0
0.140000 0.100000 0
0.160000 0.100000 0
0.180000 0.100000 0
0.200000 0.100000 0
0.220000 0.100000 0
0.240000 0.100000 0
0.260000 0.100000 0
0.280000 0.100000 0
0.300000 0.100000 0
0.320000 0.100000 0
0.340000 0.100000 0
0.360000 0.100000 0
0.380000 0.100000 0
0.400000 0.100000 0
0.420000 0.100000 0
0.440000 0.100000 0
0.460000 0.100000 0
0.480000 0.100000 0
0.500000 0.100000 0
0.520000 0.100000 0
0.540000 0.100000 0
0.560000 0.100000 0
0.580000 0.100000 0
0.600000 0.100000 0
0.620000 0.100000 0
0.640000 0.100000 0
0.660000 0.100000 0
0.680000 0.100000 0
0.700000 0.100000 0
0.720000 0.100000 0
0.740000 0.100000 0
0.760000 0.100000 0
0.780000 0.100000 0
0.800000 0.100000 0
0.820000 0.100000 0
0.840000 0.100000 0
0.860000 0.100000 0
0.880000 0.100000 0
0.900000 0.100000 0
0.920000 0.100000 0
0.940000 0.100000 0
0.960000 0.100000 0
0.980000 0.100000 0
1.000000 0.100000 0
0.000000 0.120000 0
0.020000 0.120000 0
0.040000 0.120000 0
0.060000 0.120000 0
0.080000 0.120000 0
0.100000 0.120000 0
0.120000 0.120000 0
0.140000 0.120000 0
0.160000 0.120000 0
0.180000 0.120000 0
0.200000 0.120000 0
0.220000 0.120000 0
0.240000 0.120000 0
0.260000 0.120000 0
0.280000 0.120000 0
0.300000 0.120000 0
0.320000 0.120000 0
0.340000 0.120000 0
0.360000 0.120000 0
0.380000 0.120000 0
0.400000 0.120000 0
0.420000 0.120000 0
0.440000 0.120000 0
0.460000 0.120000 0
0.480000 0.120000 0
0.500000 0.120000 0
0.520000 0.120000 0
0.540000 0.120000 0
0.560000 0.120000 0
0.580000 0.120000 0
0.600000 0.120000 0
0.620000 0.120000 0
0.640000 0.120000 0
0.660000 0.120000 0
0.680000 0.120000 0
0.700000 0.120000 0
0.720000 0.120000 0
0.740000 0.120000 0
0.760000 0.120000 0
0.780000 0.120000 0
0.800000 0.120000 0
0.820000 0.120000 0
0.840000 0.120000 0
0.860000 0.120000 0
0.880000 0.120000 0
0.900000 0.120000 0
0.920000 0.120000 0
0.940000 0.120000 0
0.960000 0.120000 0
0.980000 0.120000 0
1.000000 0.120000 0
0.000000 0.140000 0
0.020000 0.140000 0
0.040000 0.140000 0
0.060000 0.140000 0
0.080000 0.140000 0
0.100000 0.140000 0
0.120000 0.140000 0
0.140000 0.140000 0
0.160000 0.140000 0
0.180000 0.140000 0
0.200000 0.140000 0
0.220000 0.140000 0
0.240000 0.140000 0
0.260000 0.140000 0
0.280000 0.140000 0
0.300000 0.140000 0
0.320000 0.140000 0
0.340000 0.140000 0
0.360000 0.140000 0
0.380000 0.140000 0
0.400000 0.140000 0
0.420000 0.140000 0
0.440000 0.140000 0
0.460000 0.140000 0
0.480000 0.140000 0
0.500000 0.140000 0
0.520000 0.140000 0
0.540000 0.140000 0
0.560000 0.140000 0
0.580000 0.140000 0
0.600000 0.140000 0
0.620000 0.140000 0
0.640000 0.140000 0
0.660000 0.140000 0
0.680000 0.140000 0
0.700000 0.140000 0
0.720000 0.140000 0
0.740000 0.140000 0
0.760000 0.140000 0
0.780000 0.140000 0
0.800000 0.140000 0
0.820000 0.140000 0
0.840000 0.140000 0
0.860000 0.140000 0
0.880000 0.140000 0
0.900000 0.140000 0
0.920000 0.140000 0
0.940000 0.140000 0
0.960000 0.140000 0
0.980000 0.140000 0
1.000000 0.140000 0
0.000000 0.160000 0
0.020000 0.160000 0
0.040000 0.160000 0
0.060000 0.160000 0
0.080000 0.160000 0
0.100000 0.160000 0
0.120000 0.160000 0
0.140000 0.160000 0
0.160000 0.160000 0
0.180000 0.160000 0
0.200000 0.160000 0
0.220000 0.160000 0
0.240000 0.160000 0
0.260000 0.160000 0
0.280000 0.160000 0
0.300000 0.160000 0
0.320000 0.160000 0
0.340000 0.160000 0
0.360000 0.160000 0
0.380000 0.160000 0
0.400000 0.160000 0
0.420000 0.160000 0
0.440000 0.160000 0
0.460000 0.160000 0
0.480000 0.160000 0
0.500000 0.160000 0
0.520000 0.160000 0
0.540000 0.160000 0
0.560000 0.160000 0
0.580000 0.160000 0
0.600000 0.160000 0
0.620000 0.160000 0
0.640000 0.160000 0
0.660000 0.160000 0
0.680000 0.160000 0
0.700000 0.160000 0
0.720000 0.160000 0
0.740000 0.160000 0
0.760000 0.160000 0
0.780000 0.160000 0
0.800000 0.160000 0
0.820000 0.160000 0
0.840000 0.160000 0
0.860000 0.160000 0
0.880000 0.160000 0
0.900000 0.160000 0
0.920000 0.160000 0
0.940000 0.160000 0
0.960000 0.160000 0
0.980000 0.160000 0
1.000000 0.160000 0
0.000000 0.180000 0
0.020000 0.180000 0
0.040000 0.180000 0
0.060000 0.180000 0
0.080000 0.180000 0
0.100000 0.180000 0
0.120000 0.180000 0
0.140000 0.180000 0
0.160000 0.180000 0
0.180000 0.180000 0
0.200000 0.180000 0
0.220000 0.180000 0
0.240000 0.180000 0
0.260000 0.180000 0
0.280000 0.180000 0
0.300000 0.180000 0
0.320000 0.180000 0
0.340000 0.180000 0
0.360000 0.180000 0
0.380000 0.180000 0
0.400000 0.180000 0
0.420000 0.180000 0
0.440000 0.180000 0
0.460000 0.180000 0
0.480000 0.180000 0
0.500000 0.180000 0
0.520000 0.180000 0
0.540000 0.180000 0
0.560000 0.180000 0
0.580000 0.180000 0
0.600000 0.180000 0
0.620000 0.180000 0
[...]
POINT_DATA 2601 

VECTORS velocity float
0.000000 0.000000 0
-0.000000 0.000000 0
-0.000002 0.000000 0
-0.000003 0.000000 0
-0.000004 0.000000 0
-0.000004 0.000000 0
-0.000002 0.000000 0
-0.000000 0.000000 0
0.000003 0.000000 0
0.000006 0.000000 0
0.000009 0.000000 0
0.000013 0.000000 0
0.000017 0.000000 0
0.000020 0.000000 0
0.000023 0.000000 0
0.000024 0.000000 0
0.000025 0.000000 0
0.000025 0.000000 0
0.000025 0.000000 0
0.000023 0.000000 0
0.000021 0.000000 0
0.000019 0.000000 0
0.000016 0.000000 0
0.000013 0.000000 0
0.000010 0.000000 0
0.000006 0.000000 0
0.000002 0.000000 0
-0.000001 0.000000 0
-0.000004 0.000000 0
-0.000007 0.000000 0
-0.000009 0.000000 0
-0.000011 0.000000 0
-0.000012 0.000000 0
-0.000012 0.000000 0
-0.000012 0.000000 0
-0.000011 0.000000 0
-0.000010 0.000000 0
-0.000009 0.000000 0
-0.000008 0.000000 0
-0.000007 0.000000 0
-0.000006 0.000000 0
-0.000005 0.000000 0
-0.000004 0.000000 0
-0.000003 0.000000 0
-0.000002 0.000000 0
-0.000001 0.000000 0
-0.000000 0.000000 0
-0.000000 0.000000 0
0.000000 0.000000 0
0.000000 0.000000 0
0.000000 0.000000 0
0.000000 0.000000 0
-0.000883 0.000868 0
-0.003181 0.001517 0
-0.005823 0.001384 0
-0.007664 0.000560 0
-0.007906 -0.000657 0
-0.006191 -0.001978 0
-0.002485 -0.003199 0
0.003037 -0.004207 0
0.010042 -0.004949 0
0.018134 -0.005381 0
0.026846 -0.005484 0
0.035701 -0.005277 0
0.044228 -0.004798 0
0.052006 -0.004108 0
0.058691 -0.003279 0
0.064044 -0.002384 0
0.067935 -0.001489 0
0.070338 -0.000647 0
0.071319 0.000108 0
0.071012 0.000778 0
0.069566 0.001371 0
0.067125 0.001887 0
0.063831 0.002329 0
0.059823 0.002698 0
0.055240 0.002990 0
0.050226 0.003200 0
0.044927 0.003321 0
0.039495 0.003349 0
0.034083 0.003282 0
0.028835 0.003127 0
0.023880 0.002895 0
0.019326 0.002604 0
0.015250 0.002275 0
0.011698 0.001930 0
0.008683 0.001591 0
0.006189 0.001273 0
0.004178 0.000990 0
0.002596 0.000746 0
0.001384 0.000544 0
0.000481 0.000379 0
-0.000167 0.000247 0
-0.000606 0.000140 0
-0.000870 0.000051 0
-0.000985 -0.000026 0
-0.000969 -0.000094 0
-0.000840 -0.000151 0
-0.000623 -0.000186 0
-0.000359 -0.000183 0
-0.000118 -0.000119 0
0.000000 0.000000 0
0.000000 0.000002 0
-0.001807 0.003178 0
-0.005785 0.004938 0
-0.010266 0.004480 0
-0.013632 0.002081 0
-0.014745 -0.001474 0
-0.013069 -0.005423 0
-0.008504 -0.009230 0
-0.001196 -0.012529 0
0.008536 -0.015098 0
0.020202 -0.016806 0
0.033237 -0.017568 0
0.047029 -0.017383 0
0.060901 -0.016305 0
0.074179 -0.014464 0
0.086227 -0.012039 0
0.096505 -0.009243 0
0.104611 -0.006293 0
0.110312 -0.003384 0
0.113540 -0.000674 0
0.114387 0.001753 0
0.113091 0.003888 0
0.109935 0.005735 0
0.105195 0.007302 0
0.099144 0.008591 0
0.092053 0.009598 0
0.084187 0.010314 0
0.075809 0.010730 0
0.067179 0.010843 0
0.058541 0.010660 0
0.050125 0.010203 0
0.042132 0.009509 0
0.034726 0.008630 0
0.028030 0.007628 0
0.022120 0.006567 0
0.017023 0.005509 0
0.012729 0.004505 0
0.009189 0.003593 0
0.006333 0.002794 0
0.004078 0.002115 0
0.002336 0.001551 0
0.001026 0.001087 0
0.000079 0.000703 0
-0.000562 0.000379 0
-0.000938 0.000098 0
-0.001081 -0.000145 0
-0.001025 -0.000346 0
-0.000809 -0.000481 0
-0.000496 -0.000505 0
-0.000180 -0.000359 0
0.000000 0.000000 0
0.000000 0.000004 0
-0.002510 0.006650 0
-0.007901 0.009976 0
-0.014079 0.009231 0
-0.019171 0.005037 0
-0.021891 -0.001221 0
-0.021644 -0.008219 0
-0.018321 -0.015072 0
-0.012036 -0.021248 0
-0.002972 -0.026347 0
0.008576 -0.030082 0
0.022224 -0.032312 0
0.037458 -0.032941 0
0.053666 -0.031948 0
0.070150 -0.029434 0
0.086121 -0.025604 0
0.100792 -0.020768 0
0.113426 -0.015295 0
0.123434 -0.009576 0
0.130421 -0.003967 0
0.134218 0.001227 0
0.134912 0.005822 0
0.132851 0.009783 0
0.128445 0.013120 0
0.122105 0.015840 0
0.114237 0.017948 0
0.105230 0.019443 0
0.095459 0.020329 0
0.085272 0.020617 0
0.074993 0.020336 0
0.064909 0.019536 0
0.055265 0.018293 0
0.046262 0.016705 0
0.038046 0.014881 0
0.030711 0.012937 0
0.024302 0.010981 0
0.018816 0.009107 0
0.014210 0.007385 0
0.010416 0.005857 0
0.007345 0.004541 0
0.004903 0.003431 0
0.003001 0.002504 0
0.001556 0.001728 0
0.000505 0.001067 0
-0.000205 0.000493 0
-0.000612 -0.000007 0
-0.000755 -0.000423 0
-0.000680 -0.000715 0
-0.000453 -0.000813 0
-0.000175 -0.000615 0
0.000000 -0.000000 0
0.000000 0.000006 0
-0.003027 0.011077 0
-0.009607 0.016507 0
-0.017394 0.015749 0
-0.024368 0.009892 0
-0.029168 0.000998 0
-0.031143 -0.008993 0
-0.030190 -0.018839 0
-0.026410 -0.027878 0
-0.019926 -0.035710 0
-0.010820 -0.042002 0
0.000786 -0.046451 0
0.014671 -0.048826 0
0.030470 -0.048997 0
0.047624 -0.046919 0
0.065438 -0.042681 0
0.083077 -0.036548 0
0.099596 -0.028935 0
0.114087 -0.020378 0
0.125736 -0.011458 0
0.133975 -0.002738 0
0.138494 0.005254 0
0.139335 0.012202 0
0.136986 0.018048 0
0.131982 0.022799 0
0.124860 0.026472 0
0.116143 0.029092 0
0.106321 0.030689 0
0.095842 0.031309 0
0.085105 0.031024 0
0.074452 0.029930 0
0.064166 0.028155 0
0.054473 0.025849 0
0.045540 0.023178 0
0.037476 0.020310 0
0.030340 0.017404 0
0.024142 0.014597 0
0.018854 0.011992 0
0.014415 0.009659 0
0.010746 0.007627 0
0.007756 0.005895 0
0.005357 0.004434 0
0.003465 0.003198 0
0.002013 0.002139 0
0.000946 0.001215 0
0.000223 0.000405 0
-0.000194 -0.000278 0
-0.000345 -0.000783 0
-0.000293 -0.001009 0
-0.000130 -0.000813 0
0.000000 -0.000000 0
0.000000 0.000009 0
-0.003377 0.016256 0
-0.010873 0.024342 0
-0.020049 0.023992 0
-0.028827 0.016811 0
-0.035787 0.005553 0
-0.040215 -0.007197 0
-0.041949 -0.019807 0
-0.041084 -0.031513 0
-0.037705 -0.041937 0
-0.031847 -0.050794 0
-0.023495 -0.057803 0
-0.012641 -0.062625 0
0.000635 -0.064901 0
0.016115 -0.064402 0
0.033390 -0.061057 0
0.051741 -0.054926 0
0.070315 -0.046306 0
0.088108 -0.035716 0
0.104005 -0.023855 0
0.117054 -0.011532 0
0.126467 0.000462 0
0.131746 0.011291 0
0.132985 0.020473 0
0.130778 0.027966 0
0.125771 0.033786 0
0.118608 0.037982 0
0.109900 0.040630 0
0.100198 0.041833 0
0.089979 0.041726 0
0.079642 0.040475 0
0.069511 0.038272 0
0.059839 0.035331 0
0.050811 0.031878 0
0.042557 0.028136 0
0.035151 0.024315 0
0.028622 0.020593 0
0.022960 0.017112 0
0.018122 0.013965 0
0.014043 0.011199 0
0.010645 0.008820 0
0.007846 0.006796 0
0.005569 0.005072 0
0.003747 0.003586 0
0.002326 0.002283 0
0.001268 0.001133 0
0.000541 0.000146 0
0.000112 -0.000616 0
-0.000064 -0.001029 0
-0.000061 -0.000908 0
0.000000 -0.000001 0
0.000000 0.000011 0
-0.003560 0.021949 0
-0.011640 0.033178 0
-0.021855 0.033703 0
-0.032144 0.025630 0
-0.041049 0.012386 0
-0.047784 -0.002832 0
-0.052064 -0.017971 0
-0.053966 -0.032122 0
-0.053572 -0.044948 0
-0.050895 -0.056213 0
-0.045899 -0.065657 0
-0.038542 -0.072955 0
-0.028755 -0.077752 0
-0.016500 -0.079674 0
-0.001881 -0.078307 0
0.014808 -0.073473 0
0.033075 -0.065302 0
0.051980 -0.054069 0
0.070446 -0.040405 0
0.087361 -0.025199 0
0.101494 -0.009438 0
0.111944 0.005684 0
0.117911 0.019016 0
0.119705 0.030012 0
0.117999 0.038642 0
0.113522 0.044962 0
0.106986 0.049098 0
0.099030 0.051230 0
0.090207 0.051579 0
0.080972 0.050397 0
0.071691 0.047958 0
0.062647 0.044549 0
0.054054 0.040460 0
0.046062 0.035971 0
0.038769 0.031339 0
0.032229 0.026788 0
0.026454 0.022492 0
0.021426 0.018576 0
0.017103 0.015104 0
0.013423 0.012092 0
0.010318 0.009510 0
0.007720 0.007298 0
0.005568 0.005382 0
0.003813 0.003694 0
0.002422 0.002191 0
0.001370 0.000878 0
0.000639 -0.000178 0
0.000204 -0.000836 0
0.000018 -0.000877 0
0.000000 -0.000001 0
0.000000 0.000013 0
-0.003577 0.027894 0
-0.011887 0.042637 0
-0.022717 0.044495 0
-0.034108 0.036004 0
-0.044583 0.021193 0
-0.053278 0.003817 0
-0.059807 -0.013625 0
-0.064143 -0.030005 0
-0.066411 -0.045009 0
-0.066636 -0.058467 0
-0.064782 -0.070156 0
-0.060778 -0.079770 0
-0.054535 -0.086943 0
-0.045984 -0.091276 0
-0.035063 -0.092364 0
-0.021707 -0.089882 0
-0.006067 -0.083478 0
0.011430 -0.073087 0
0.030182 -0.059236 0
0.049004 -0.042580 0
0.066544 -0.024121 0
0.081659 -0.005126 0
0.092989 0.012711 0
0.099630 0.027877 0
0.102186 0.039968 0
0.101377 0.048995 0
0.097970 0.055122 0
0.092659 0.058612 0
0.086050 0.059784 0
0.078648 0.058990 0
0.070861 0.056596 0
0.063007 0.052967 0
0.055330 0.048463 0
0.048012 0.043421 0
0.041181 0.038148 0
0.034919 0.032908 0
0.029271 0.027914 0
0.024247 0.023315 0
0.019833 0.019203 0
0.015991 0.015605 0
0.012671 0.012498 0
0.009820 0.009822 0
0.007387 0.007492 0
0.005329 0.005429 0
0.003620 0.003576 0
0.002245 0.001928 0
0.001204 0.000550 0
0.000494 -0.000409 0
0.000105 -0.000704 0
0.000000 -0.000002 0
0.000000 0.000014 0
-0.003446 0.033834 0
-0.011644 0.052318 0
-0.022656 0.055923 0
-0.034696 0.047495 0
-0.046311 0.031555 0
-0.056561 0.012391 0
-0.064990 -0.007105 0
-0.071429 -0.025517 0
-0.076024 -0.042455 0
-0.078843 -0.057842 0
-0.079870 -0.071516 0
-0.079033 -0.083202 0
-0.076224 -0.092546 0
-0.071327 -0.099147 0
-0.064218 -0.102585 0
-0.054788 -0.102468 0
-0.042996 -0.098439 0
-0.028765 -0.090318 0
-0.012281 -0.077979 0
0.005791 -0.061562 0
0.024632 -0.042094 0
0.042919 -0.020761 0
0.058949 0.001045 0
0.071147 0.020815 0
0.078779 0.036895 0
0.082480 0.049178 0
0.083059 0.057816 0
0.081211 0.063150 0
0.077578 0.065589 0
0.072700 0.065586 0
0.067017 0.063599 0
0.060886 0.060079 0
0.054588 0.055454 0
0.048339 0.050120 0
0.042304 0.044432 0
0.036603 0.038698 0
0.031316 0.033164 0
0.026489 0.028013 0
0.022139 0.023360 0
0.018258 0.019253 0
0.014821 0.015680 0
0.011793 0.012582 0
0.009135 0.009873 0
0.006816 0.007461 0
0.004818 0.005274 0
0.003136 0.003294 0
0.001788 0.001573 0
0.000798 0.000263 0
0.000197 -0.000383 0
0.000000 -0.000002 0
0.000000 0.000015 0
-0.003193 0.039537 0
-0.010984 0.061847 0
-0.021779 0.067547 0
-0.034034 0.059659 0
-0.046365 0.043056 0
-0.057775 0.022495 0
-0.067729 0.001243 0
-0.075988 -0.018971 0
-0.082605 -0.037595 0
-0.087725 -0.054620 0
-0.091371 -0.069966 0
-0.093485 -0.083416 0
-0.093955 -0.094649 0
-0.092634 -0.103282 0
-0.089349 -0.108904 0
-0.083916 -0.111104 0
-0.076168 -0.109501 0
-0.065947 -0.103801 0
-0.053242 -0.093792 0
-0.038039 -0.079494 0
-0.020589 -0.061250 0
-0.001839 -0.039442 0
0.017042 -0.015516 0
0.034553 0.008047 0
0.047993 0.028634 0
0.056970 0.044715 0
0.062332 0.056391 0
0.064696 0.064092 0
0.064744 0.068295 0
0.063034 0.069552 0
0.060035 0.068409 0
0.056142 0.065396 0
0.051673 0.061010 0
0.046885 0.055704 0
0.041984 0.049884 0
0.037131 0.043897 0
0.032447 0.038028 0
0.028019 0.032492 0
0.023900 0.027433 0
0.020117 0.022922 0
0.016673 0.018963 0
0.013556 0.015508 0
0.010746 0.012469 0
0.008222 0.009747 0
0.005977 0.007257 0
0.004018 0.004958 0
0.002378 0.002888 0
0.001112 0.001182 0
0.000294 0.000094 0
0.000000 -0.000002 0
0.000000 0.000016 0
-0.002852 0.044817 0
-0.010003 0.070904 0
-0.020241 0.078972 0
-0.032319 0.072081 0
-0.044971 0.055296 0
-0.057166 0.033754 0
-0.068294 0.011108 0
-0.078100 -0.010642 0
-0.086472 -0.030718 0
-0.093618 -0.049076 0
-0.099616 -0.065755 0
-0.104436 -0.080617 0
-0.107975 -0.093397 0
-0.110073 -0.103753 0
-0.110525 -0.111303 0
-0.109094 -0.115649 0
-0.105524 -0.116409 0
-0.099554 -0.113244 0
-0.090970 -0.105887 0
-0.079587 -0.094216 0
-0.065414 -0.078293 0
-0.048683 -0.058393 0
-0.029682 -0.035348 0
-0.009672 -0.010136 0
0.009267 0.014479 0
0.024500 0.034838 0
0.035547 0.050089 0
0.042886 0.060738 0
0.047325 0.067251 0
0.049419 0.070294 0
0.049671 0.070491 0
0.048523 0.068441 0
0.046333 0.064711 0
0.043402 0.059809 0
0.039982 0.054186 0
0.036279 0.048234 0
0.032460 0.042275 0
0.028653 0.036560 0
0.024953 0.031262 0
0.021425 0.026480 0
0.018104 0.022241 0
0.015007 0.018510 0
0.012134 0.015207 0
0.009481 0.012230 0
0.007050 0.009479 0
0.004860 0.006893 0
0.002959 0.004479 0
0.001431 0.002346 0
0.000396 0.000729 0
0.000000 -0.000002 0
0.000000 0.000016 0
-0.002456 0.049539 0
-0.008802 0.079236 0
-0.018217 0.089863 0
-0.029784 0.084389 0
-0.042401 0.067903 0
-0.055038 0.045818 0
-0.067015 0.022176 0
-0.078043 -0.000793 0
-0.087965 -0.022076 0
-0.096884 -0.041477 0
-0.104962 -0.059148 0
-0.112216 -0.075056 0
-0.118561 -0.089012 0
-0.123837 -0.100733 0
-0.127826 -0.109883 0
-0.130259 -0.116106 0
-0.130827 -0.119042 0
-0.129189 -0.118356 0
-0.125000 -0.113759 0
-0.117928 -0.105051 0
-0.107726 -0.092154 0
-0.094268 -0.075174 0
-0.077597 -0.054527 0
-0.058252 -0.030903 0
-0.036851 -0.005539 0
-0.015933 0.018435 0
0.001402 0.038005 0
0.014820 0.052314 0
0.024624 0.061762 0
0.031282 0.067205 0
0.035426 0.069305 0
0.037583 0.068734 0
0.038155 0.066131 0
0.037507 0.062055 0
0.035945 0.057006 0
0.033724 0.051419 0
0.031059 0.045654 0
0.028126 0.039999 0
0.025064 0.034661 0
0.021977 0.029771 0
0.018940 0.025381 0
0.015999 0.021478 0
0.013181 0.017995 0
0.010499 0.014831 0
0.007967 0.011878 0
0.005616 0.009049 0
0.003505 0.006316 0
0.001745 0.003744 0
0.000502 0.001525 0
0.000000 -0.000002 0
0.000000 0.000016 0
-0.002034 0.053618 0
-0.007477 0.086664 0
-0.015879 0.099953 0
-0.026665 0.096265 0
-0.038938 0.080550 0
-0.051704 0.058367 0
-0.064225 0.034113 0
-0.076156 0.010309 0
-0.087406 -0.011878 0
-0.097867 -0.032080 0
-0.107761 -0.050423 0
-0.117161 -0.067018 0
-0.126011 -0.081777 0
-0.134160 -0.094488 0
-0.141390 -0.104880 0
-0.147419 -0.112648 0
-0.151907 -0.117479 0
-0.154472 -0.119071 0
-0.154695 -0.117149 0
-0.152141 -0.111490 0
-0.146396 -0.101953 0
-0.137103 -0.088522 0
-0.124031 -0.071364 0
-0.107205 -0.050882 0
-0.086898 -0.027840 0
-0.063968 -0.003415 0
-0.041138 0.019336 0
-0.021229 0.037516 0
-0.005191 0.050788 0
0.007116 0.059492 0
0.016169 0.064190 0
0.022410 0.065712 0
0.026374 0.064787 0
0.028542 0.062019 0
0.029297 0.057969 0
0.028955 0.053120 0
0.027793 0.047874 0
0.026039 0.042555 0
0.023882 0.037411 0
0.021471 0.032604 0
0.018920 0.028219 0
0.016314 0.024269 0
0.013706 0.020707 0
0.011132 0.017443 0
0.008622 0.014362 0
0.006212 0.011355 0
0.003973 0.008350 0
0.002034 0.005350 0
0.000607 0.002474 0
0.000000 -0.000002 0
0.000000 0.000016 0
-0.001611 0.057015 0
-0.006113 0.093081 0
-0.013387 0.109050 0
-0.023187 0.107448 0
-0.034855 0.092943 0
-0.047471 0.071104 0
-0.060254 0.046628 0
-0.072803 0.022388 0
-0.085043 -0.000366 0
-0.096875 -0.021122 0
-0.108341 -0.039854 0
-0.119601 -0.056807 0
-0.130638 -0.072013 0
-0.141320 -0.085353 0
-0.151432 -0.096625 0
-0.160690 -0.105589 0
-0.168747 -0.111988 0
-0.175201 -0.115568 0
-0.179605 -0.116091 0
-0.181473 -0.113350 0
-0.180310 -0.107192 0
-0.175631 -0.097539 0
-0.167017 -0.084425 0
-0.154180 -0.068036 0
-0.137042 -0.048775 0
-0.115901 -0.027325 0
-0.091512 -0.004734 0
-0.066676 0.016366 0
-0.044227 0.033416 0
-0.025470 0.045846 0
-0.010449 0.054011 0
0.001001 0.058528 0
0.009398 0.059999 0
0.015230 0.059132 0
0.018978 0.056593 0
0.021079 0.052922 0
0.021898 0.048570 0
0.021737 0.043910 0
0.020845 0.039230 0
0.019423 0.034733 0
0.017635 0.030538 0
0.015607 0.026692 0
0.013427 0.023176 0
0.011156 0.019915 0
0.008840 0.016798 0
0.006525 0.013698 0
0.004287 0.010494 0
0.002264 0.007110 0
0.000704 0.003559 0
0.000000 -0.000001 0
0.000000 0.000015 0
-0.001206 0.059731 0
-0.004778 0.098440 0
-0.010875 0.117027 0
-0.019552 0.117733 0
-0.030406 0.104834 0
-0.042630 0.083765 0
-0.055421 0.059445 0
-0.068317 0.035098 0
-0.081212 0.012193 0
-0.094158 -0.008782 0
-0.106993 -0.027696 0
-0.119844 -0.044721 0
-0.132752 -0.060058 0
-0.145612 -0.073694 0
-0.158216 -0.085511 0
-0.170286 -0.095333 0
-0.181478 -0.102967 0
-0.191388 -0.108213 0
-0.199564 -0.110877 0
-0.205514 -0.110785 0
-0.208720 -0.107796 0
-0.208656 -0.101815 0
-0.204825 -0.092815 0
-0.196793 -0.080856 0
-0.184252 -0.066120 0
-0.167113 -0.048945 0
-0.145604 -0.029888 0
-0.120424 -0.009769 0
-0.094010 0.009583 0
-0.069001 0.025714 0
-0.047479 0.037720 0
-0.029748 0.045864 0
-0.015658 0.050557 0
-0.004936 0.052439 0
0.002920 0.052120 0
0.008411 0.050200 0
0.011989 0.047215 0
0.014065 0.043608 0
0.014986 0.039725 0
0.015024 0.035813 0
0.014411 0.032034 0
0.013322 0.028477 0
0.011890 0.025158 0
0.010209 0.022030 0
0.008344 0.018993 0
0.006356 0.015908 0
0.004318 0.012611 0
0.002369 0.008932 0
0.000774 0.004738 0
0.000000 -0.000001 0
0.000000 0.000014 0
-0.000834 0.061793 0
-0.003524 0.102750 0
-0.008452 0.123823 0
-0.015932 0.126978 0
-0.025814 0.116020 0
-0.037443 0.096120 0
-0.050021 0.072315 0
-0.063020 0.048179 0
-0.076295 0.025476 0
-0.089943 0.004658 0
-0.103958 -0.014169 0
-0.118157 -0.031047 0
-0.132637 -0.046245 0
-0.147324 -0.059890 0
-0.162027 -0.071951 0
-0.176477 -0.082327 0
-0.190336 -0.090886 0
-0.203211 -0.097481 0
-0.214662 -0.101964 0
-0.224209 -0.104195 0
-0.231345 -0.104050 0
-0.235557 -0.101434 0
-0.236344 -0.096289 0
-0.233243 -0.088609 0
-0.225865 -0.078455 0
-0.213942 -0.065972 0
-0.197391 -0.051423 0
-0.176399 -0.035228 0
-0.151516 -0.018006 0
-0.124450 -0.000685 0
-0.097696 0.014758 0
-0.073289 0.026708 0
-0.052591 0.035188 0
-0.035675 0.040554 0
-0.022265 0.043245 0
-0.012012 0.043854 0
-0.004437 0.042916 0
0.000960 0.040913 0
0.004611 0.038271 0
0.006892 0.035308 0
0.008116 0.032240 0
0.008541 0.029213 0
0.008360 0.026289 0
0.007712 0.023461 0
0.006696 0.020651 0
0.005388 0.017724 0
0.003861 0.014481 0
0.002242 0.010654 0
0.000785 0.005928 0
0.000000 0.000000 0
0.000000 0.000014 0
-0.000504 0.063253 0
-0.002386 0.106058 0
-0.006200 0.129435 0
-0.012464 0.135094 0
-0.021271 0.126345 0
-0.032142 0.107973 0
-0.044321 0.085021 0
-0.057216 0.061371 0
-0.070615 0.039117 0
-0.084603 0.018881 0
-0.099357 0.000517 0
-0.114735 -0.016042 0
-0.130523 -0.030891 0
-0.146714 -0.044305 0
-0.163138 -0.056358 0
-0.179544 -0.067024 0
-0.195606 -0.076233 0
-0.210948 -0.083887 0
-0.225149 -0.089880 0
-0.237755 -0.094102 0
-0.248286 -0.096447 0
-0.256258 -0.096816 0
-0.261197 -0.095129 0
-0.262660 -0.091336 0
-0.260261 -0.085421 0
-0.253693 -0.077419 0
-0.242759 -0.067431 0
-0.227410 -0.055643 0
-0.207807 -0.042366 0
-0.184379 -0.028106 0
-0.157974 -0.013441 0
-0.130674 0.000759 0
-0.104423 0.012943 0
-0.080739 0.022114 0
-0.060611 0.028458 0
-0.044142 0.032372 0
-0.030995 0.034243 0
-0.020746 0.034560 0
-0.012970 0.033794 0
-0.007218 0.032309 0
-0.003077 0.030385 0
-0.000199 0.028232 0
0.001682 0.025987 0
0.002772 0.023694 0
0.003223 0.021317 0
0.003139 0.018743 0
0.002601 0.015757 0
0.001711 0.012008 0
0.000680 0.006980 0
0.000000 0.000000 0
0.000000 0.000013 0
-0.000221 0.064178 0
-0.001388 0.108446 0
-0.004175 0.133901 0
-0.009254 0.142048 0
-0.016931 0.135698 0
-0.026923 0.119170 0
-0.038551 0.097389 0
-0.051178 0.074472 0
-0.064508 0.052863 0
-0.078583 0.033400 0
-0.093585 0.015963 0
-0.109657 0.000119 0
-0.126547 -0.014266 0
-0.143975 -0.027274 0
-0.161782 -0.039121 0
-0.179750 -0.049860 0
-0.197574 -0.059482 0
-0.214904 -0.067938 0
-0.231346 -0.075157 0
-0.246478 -0.081058 0
-0.259855 -0.085546 0
-0.271025 -0.088523 0
-0.279543 -0.089887 0
-0.284990 -0.089545 0
-0.286998 -0.087421 0
-0.285261 -0.083474 0
-0.279559 -0.077706 0
-0.269766 -0.070180 0
-0.255878 -0.061038 0
-0.238050 -0.050517 0
-0.216680 -0.038946 0
-0.192315 -0.026843 0
-0.165943 -0.014748 0
-0.139325 -0.003258 0
-0.113979 0.006649 0
-0.090981 0.014238 0
-0.071056 0.019520 0
-0.054469 0.022888 0
-0.040974 0.024743 0
-0.030158 0.025415 0
-0.021595 0.025222 0
-0.014902 0.024454 0
-0.009751 0.023317 0
-0.005860 0.021920 0
-0.003011 0.020284 0
-0.001053 0.018346 0
0.000106 0.015909 0
0.000539 0.012575 0
0.000377 0.007639 0
0.000000 0.000000 0
0.000000 0.000012 0
0.000012 0.064641 0
-0.000543 0.110012 0
-0.002408 0.137300 0
-0.006371 0.147850 0
-0.012912 0.144014 0
-0.021943 0.129593 0
-0.032898 0.109276 0
-0.045123 0.087328 0
-0.058239 0.066522 0
-0.072213 0.047958 0
-0.087209 0.031592 0
-0.103393 0.016920 0
-0.120819 0.003427 0
-0.139162 -0.009070 0
-0.158100 -0.020583 0
-0.177293 -0.031231 0
-0.196489 -0.041078 0
-0.215371 -0.050115 0
-0.233577 -0.058306 0
-0.250731 -0.065593 0
-0.266426 -0.071899 0
-0.280248 -0.077127 0
-0.291779 -0.081163 0
-0.300613 -0.083880 0
-0.306380 -0.085149 0
-0.308766 -0.084858 0
-0.307531 -0.082926 0
-0.302521 -0.079323 0
-0.293684 -0.074081 0
-0.281079 -0.067304 0
-0.264890 -0.059177 0
-0.245429 -0.049977 0
-0.223237 -0.040047 0
-0.198932 -0.029850 0
-0.173352 -0.019886 0
-0.147752 -0.010552 0
-0.123349 -0.002269 0