# vtk DataFile Version 2.0
generated by CFD-lab course output (written by Tobias Neckel) 
ASCII

DATASET STRUCTURED_GRID
DIMENSIONS  51 51 1 
POINTS 2601 float

0.000000 0.000000 0
0.020000 0.000000 0
0.040000 0.000000 0
0.060000 0.000000 0
0.080000 0.000000 0
0.100000 0.000000 0
0.120000 0.000000 0
0.140000 0.000000 0
0.160000 0.000000 0
0.180000 0.000000 0
0.200000 0.000000 0
0.220000 0.000000 0
0.240000 0.000000 0
0.260000 0.000000 0
0.280000 0.000000 0
0.300000 0.000000 0
0.320000 0.000000 0
0.340000 0.000000 0
0.360000 0.000000 0
0.380000 0.000000 0
0.400000 0.000000 0
0.420000 0.000000 0
0.440000 0.000000 0
0.460000 0.000000 0
0.480000 0.000000 0
0.500000 0.000000 0
0.520000 0.000000 0
0.540000 0.000000 0
0.560000 0.000000 0
0.580000 0.000000 0
0.600000 0.000000 0
0.620000 0.000000 0
0.640000 0.000000 0
0.660000 0.000000 0
0.680000 0.000000 0
0.700000 0.000000 0
0.720000 0.000000 0
0.740000 0.000000 0
0.760000 0.000000 0
0.780000 0.000000 0
0.800000 0.000000 0
0.820000 0.000000 0
0.840000 0.000000 0
0.860000 0.000000 0
0.880000 0.000000 0
0.900000 0.000000 0
0.920000 0.000000 0
0.940000 0.000000 0
0.960000 0.000000 0
0.980000 0.000000 0
1.000000 0.000000 0
0.000000 0.020000 0
0.020000 0.020000 0
0.040000 0.020000 0
0.060000 0.020000 0
0.080000 0.020000 0
0.100000 0.020000 0
0.120000 0.020000 0
0.140000 0.020000 0
0.160000 0.020000 0
0.180000 0.020000 0
0.200000 0.020000 0
0.220000 0.020000 0
0.240000 0.020000 0
0.260000 0.020000 0
0.280000 0.020000 0
0.300000 0.020000 0
0.320000 0.020000 0
0.340000 0.020000 0
0.360000 0.020000 0
0.380000 0.020000 0
0.400000 0.020000 0
0.420000 0.020000 0
0.440000 0.020000 0
0.460000 0.020000 0
0.480000 0.020000 0
0.500000 0.020000 0
0.520000 0.020000 0
0.540000 0.020000 0
0.560000 0.020000 0
0.580000 0.020000 0
0.600000 0.020000 0
0.620000 0.020000 0
0.640000 0.020000 0
0.660000 0.020000 0
0.680000 0.020000 0
0.700000 0.020000 0
0.720000 0.020000 0
0.740000 0.020000 0
0.760000 0.020000 0
0.780000 0.020000 0
0.800000 0.020000 0
0.820000 0.020000 0
0.840000 0.020000 0
0.860000 0.020000 0
0.880000 0.020000 0
0.900000 0.020000 0
0.920000 0.020000 0
0.940000 0.020000 0
0.960000 0.020000 0
0.980000 0.020000 0
1.000000 0.020000 0
0.000000 0.040000 0
0.020000 0.040000 0
0.040000 0.040000 0
0.060000 0.040000 0
0.080000 0.040000 0
0.100000 0.040000 0
0.120000 0.040000 0
0.140000 0.040000 0
0.160000 0.040000 0
0.180000 0.040000 0
0.200000 0.040000 0
0.220000 0.040000 0
0.240000 0.040000 0
0.260000 0.040000 0
0.280000 0.040000 0
0.300000 0.040000 0
0.320000 0.040000 0
0.340000 0.040000 0
0.360000 0.040000 0
0.380000 0.040000 0
0.400000 0.040000 0
0.420000 0.040000 0
0.440000 0.040000 0
0.460000 0.040000 0
0.480000 0.040000 0
0.500000 0.040000 0
0.520000 0.040000 0
0.540000 0.040000 0
0.560000 0.040000 0
0.580000 0.040000 0
0.600000 0.040000 0
0.620000 0.040000 0
0.640000 0.040000 0
0.660000 0.040000 0
0.680000 0.040000 0
0.700000 0.040000 0
0.720000 0.040000 0
0.740000 0.040000 0
0.760000 0.040000 0
0.780000 0.040000 0
0.800000 0.040000 0
0.820000 0.040000 0
0.840000 0.040000 0
0.860000 0.040000 0
0.880000 0.040000 0
0.900000 0.040000 0
0.920000 0.040000 0
0.940000 0.040000 0
0.960000 0.040000 0
0.980000 0.040000 0
1.000000 0.040000 0
0.000000 0.060000 0
0.020000 0.060000 0
0.040000 0.060000 0
0.060000 0.060000 0
0.080000 0.060000 0
0.100000 0.060000 0
0.120000 0.060000 0
0.140000 0.060000 0
0.160000 0.060000 0
0.180000 0.060000 0
0.200000 0.060000 0
0.220000 0.060000 0
0.240000 0.060000 0
0.260000 0.060000 0
0.280000 0.060000 0
0.300000 0.060000 0
0.320000 0.060000 0
0.340000 0.060000 0
0.360000 0.060000 0
0.380000 0.060000 0
0.400000 0.060000 0
0.420000 0.060000 0
0.440000 0.060000 0
0.460000 0.060000 0
0.480000 0.060000 0
0.500000 0.060000 0
0.520000 0.060000 0
0.540000 0.060000 0
0.560000 0.060000 0
0.580000 0.060000 0
0.600000 0.060000 0
0.620000 0.060000 0
0.640000 0.060000 0
0.660000 0.060000 0
0.680000 0.060000 0
0.700000 0.060000 0
0.720000 0.060000 0
0.740000 0.060000 0
0.760000 0.060000 0
0.780000 0.060000 0
0.800000 0.060000 0
0.820000 0.060000 0
0.840000 0.060000 0
0.860000 0.060000 0
0.880000 0.060000 0
0.900000 0.060000 0
0.920000 0.060000 0
0.940000 0.060000 0
0.960000 0.060000 0
0.980000 0.060000 0
1.000000 0.060000 0
0.000000 0.080000 0
0.020000 0.080000 0
0.040000 0.080000 0
0.060000 0.080000 0
0.080000 0.080000 0
0.100000 0.080000 0
0.120000 0.080000 0
0.140000 0.080000 0
0.160000 0.080000 0
0.180000 0.080000 0
0.200000 0.080000 0
0.220000 0.080000 0
0.240000 0.080000 0
0.260000 0.080000 0
0.280000 0.080000 0
0.300000 0.080000 0
0.320000 0.080000 0
0.340000 0.080000 0
0.360000 0.080000 0
0.380000 0.080000 0
0.400000 0.080000 0
0.420000 0.080000 0
0.440000 0.080000 0
0.460000 0.080000 0
0.480000 0.080000 0
0.500000 0.080000 0
0.520000 0.080000 0
0.540000 0.080000 0
0.560000 0.080000 0
0.580000 0.080000 0
0.600000 0.080000 0
0.620000 0.080000 0
0.640000 0.080000 0
0.660000 0.080000 0
0.680000 0.080000 0
0.700000 0.080000 0
0.720000 0.080000 0
0.740000 0.080000 0
0.760000 0.080000 0
0.780000 0.080000 0
0.800000 0.080000 0
0.820000 0.080000 0
0.840000 0.080000 0
0.860000 0.080000 0
0.880000 0.080000 0
0.900000 0.080000 0
0.920000 0.080000 0
0.940000 0.080000 0
0.960000 0.080000 0
0.980000 0.080000 0
1.000000 0.080000 0
0.000000 0.100000 0
0.020000 0.100000 0
0.040000 0.100000 0
0.060000 0.100000 0
0.080000 0.100000 0
0.100000 0.100000 0
0.120000 0.100000 0
0.140000 0.100000 0
0.160000 0.100000 0
0.180000 0.100000 0
0.200000 0.100000 0
0.220000 0.100000 0
0.240000 0.100000 0
0.260000 0.100000 0
0.280000 0.100000 0
0.300000 0.100000 0
0.320000 0.100000 0
0.340000 0.100000 0
0.360000 0.100000 0
0.380000 0.100000 0
0.400000 0.100000 0
0.420000 0.100000 0
0.440000 0.100000 0
0.460000 0.100000 0
0.480000 0.100000 0
0.500000 0.100000 0
0.520000 0.100000 0
0.540000 0.100000 0
0.560000 0.100000 0
0.580000 0.100000 0
0.600000 0.100000 0
0.620000 0.100000 0
0.640000 0.100000 0
0.660000 0.100000 0
0.680000 0.100000 0
0.700000 0.100000 0
0.720000 0.100000 0
0.740000 0.100000 0
0.760000 0.100000 0
0.780000 0.100000 0
0.800000 0.100000 0
0.820000 0.100000 0
0.840000 0.100000 0
0.860000 0.100000 0
0.880000 0.100000 0
0.900000 0.100000 0
0.920000 0.100000 0
0.940000 0.100000 0
0.960000 0.100000 0
0.980000 0.100000 0
1.000000 0.100000 0
0.000000 0.120000 0
0.020000 0.120000 0
0.040000 0.120000 0
0.060000 0.120000 0
0.080000 0.120000 0
0.100000 0.120000 0
0.120000 0.120000 0
0.140000 0.120000 0
0.160000 0.120000 0
0.180000 0.120000 0
0.200000 0.120000 0
0.220000 0.120000 0
0.240000 0.120000 0
0.260000 0.120000 0
0.280000 0.120000 0
0.300000 0.120000 0
0.320000 0.120000 0
0.340000 0.120000 0
0.360000 0.120000 0
0.380000 0.120000 0
0.400000 0.120000 0
0.420000 0.120000 0
0.440000 0.120000 0
0.460000 0.120000 0
0.480000 0.120000 0
0.500000 0.120000 0
0.520000 0.120000 0
0.540000 0.120000 0
0.560000 0.120000 0
0.580000 0.120000 0
0.600000 0.120000 0
0.620000 0.120000 0
0.640000 0.120000 0
0.660000 0.120000 0
0.680000 0.120000 0
0.700000 0.120000 0
0.720000 0.120000 0
0.740000 0.120000 0
0.760000 0.120000 0
0.780000 0.120000 0
0.800000 0.120000 0
0.820000 0.120000 0
0.840000 0.120000 0
0.860000 0.120000 0
0.880000 0.120000 0
0.900000 0.120000 0
0.920000 0.120000 0
0.940000 0.120000 0
0.960000 0.120000 0
0.980000 0.120000 0
1.000000 0.120000 0
0.000000 0.140000 0
0.020000 0.140000 0
0.040000 0.140000 0
0.060000 0.140000 0
0.080000 0.140000 0
0.100000 0.140000 0
0.120000 0.140000 0
0.140000 0.140000 0
0.160000 0.140000 0
0.180000 0.140000 0
0.200000 0.140000 0
0.220000 0.140000 0
0.240000 0.140000 0
0.260000 0.140000 0
0.280000 0.140000 0
0.300000 0.140000 0
0.320000 0.140000 0
0.340000 0.140000 0
0.360000 0.140000 0
0.380000 0.140000 0
0.400000 0.140000 0
0.420000 0.140000 0
0.440000 0.140000 0
0.460000 0.140000 0
0.480000 0.140000 0
0.500000 0.140000 0
0.520000 0.140000 0
0.540000 0.140000 0
0.560000 0.140000 0
0.580000 0.140000 0
0.600000 0.140000 0
0.620000 0.140000 0
0.640000 0.140000 0
0.660000 0.140000 0
0.680000 0.140000 0
0.700000 0.140000 0
0.720000 0.140000 0
0.740000 0.140000 0
0.760000 0.140000 0
0.780000 0.140000 0
0.800000 0.140000 0
0.820000 0.140000 0
0.840000 0.140000 0
0.860000 0.140000 0
0.880000 0.140000 0
0.900000 0.140000 0
0.920000 0.140000 0
0.940000 0.140000 0
0.960000 0.140000 0
0.980000 0.140000 0
1.000000 0.140000 0
0.000000 0.160000 0
0.020000 0.160000 0
0.040000 0.160000 0
0.060000 0.160000 0
0.080000 0.160000 0
0.100000 0.160000 0
0.120000 0.160000 0
0.140000 0.160000 0
0.160000 0.160000 0
0.180000 0.160000 0
0.200000 0.160000 0
0.220000 0.160000 0
0.240000 0.160000 0
0.260000 0.160000 0
0.280000 0.160000 0
0.300000 0.160000 0
0.320000 0.160000 0
0.340000 0.160000 0
0.360000 0.160000 0
0.380000 0.160000 0
0.400000 0.160000 0
0.420000 0.160000 0
0.440000 0.160000 0
0.460000 0.160000 0
0.480000 0.160000 0
0.500000 0.160000 0
0.520000 0.160000 0
0.540000 0.160000 0
0.560000 0.160000 0
0.580000 0.160000 0
0.600000 0.160000 0
0.620000 0.160000 0
0.640000 0.160000 0
0.660000 0.160000 0
0.680000 0.160000 0
0.700000 0.160000 0
0.720000 0.160000 0
0.740000 0.160000 0
0.760000 0.160000 0
0.780000 0.160000 0
0.800000 0.160000 0
0.820000 0.160000 0
0.840000 0.160000 0
0.860000 0.160000 0
0.880000 0.160000 0
0.900000 0.160000 0
0.920000 0.160000 0
0.940000 0.160000 0
0.960000 0.160000 0
0.980000 0.160000 0
1.000000 0.160000 0
0.000000 0.180000 0
0.020000 0.180000 0
0.040000 0.180000 0
0.060000 0.180000 0
0.080000 0.180000 0
0.100000 0.180000 0
0.120000 0.180000 0
0.140000 0.180000 0
0.160000 0.180000 0
0.180000 0.180000 0
0.200000 0.180000 0
0.220000 0.180000 0
0.240000 0.180000 0
0.260000 0.180000 0
0.280000 0.180000 0
0.300000 0.180000 0
0.320000 0.180000 0
0.340000 0.180000 0
0.360000 0.180000 0
0.380000 0.180000 0
0.400000 0.180000 0
0.420000 0.180000 0
0.440000 0.180000 0
0.460000 0.180000 0
0.480000 0.180000 0
0.500000 0.180000 0
0.520000 0.180000 0
0.540000 0.180000 0
0.560000 0.180000 0
0.580000 0.180000 0
0.600000 0.180000 0
0.620000 0.180000 0
[...]
POINT_DATA 2601 

VECTORS velocity float
0.000000 0.000000 0
0.000000 0.000000 0
0.000000 0.000000 0
-0.000000 0.000000 0
-0.000001 0.000000 0
-0.000001 0.000000 0
-0.000002 0.000000 0
-0.000003 0.000000 0
-0.000004 0.000000 0
-0.000005 0.000000 0
-0.000006 0.000000 0
-0.000006 0.000000 0
-0.000006 0.000000 0
-0.000006 0.000000 0
-0.000006 0.000000 0
-0.000005 0.000000 0
-0.000005 0.000000 0
-0.000004 0.000000 0
-0.000002 0.000000 0
-0.000001 0.000000 0
-0.000000 0.000000 0
0.000001 0.000000 0
0.000001 0.000000 0
0.000002 0.000000 0
0.000002 0.000000 0
0.000003 0.000000 0
0.000003 0.000000 0
0.000003 0.000000 0
0.000003 0.000000 0
0.000003 0.000000 0
0.000003 0.000000 0
0.000002 0.000000 0
0.000002 0.000000 0
0.000002 0.000000 0
0.000002 0.000000 0
0.000001 0.000000 0
0.000001 0.000000 0
0.000001 0.000000 0
0.000001 0.000000 0
0.000001 0.000000 0
0.000001 0.000000 0
0.000001 0.000000 0
0.000000 0.000000 0
0.000000 0.000000 0
0.000000 0.000000 0
0.000000 0.000000 0
0.000000 0.000000 0
0.000000 0.000000 0
0.000000 0.000000 0
-0.000000 0.000000 0
0.000000 0.000000 0
0.000000 0.000000 0
-0.001801 0.001888 0
-0.006918 0.003640 0
-0.013455 0.003965 0
-0.019379 0.003056 0
-0.023417 0.001541 0
-0.025099 -0.000102 0
-0.024393 -0.001698 0
-0.021376 -0.003220 0
-0.016145 -0.004644 0
-0.008834 -0.005904 0
0.000345 -0.006880 0
0.011033 -0.007505 0
0.022668 -0.007736 0
0.034690 -0.007511 0
0.046425 -0.006830 0
0.057220 -0.005759 0
0.066459 -0.004396 0
0.073646 -0.002881 0
0.078483 -0.001361 0
0.080875 0.000033 0
0.080942 0.001254 0
0.078973 0.002296 0
0.075309 0.003140 0
0.070300 0.003784 0
0.064299 0.004227 0
0.057657 0.004468 0
0.050710 0.004512 0
0.043772 0.004372 0
0.037116 0.004077 0
0.030959 0.003666 0
0.025453 0.003185 0
0.020682 0.002678 0
0.016666 0.002186 0
0.013373 0.001736 0
0.010733 0.001346 0
0.008656 0.001026 0
0.007039 0.000774 0
0.005783 0.000586 0
0.004795 0.000454 0
0.003996 0.000368 0
0.003320 0.000318 0
0.002718 0.000292 0
0.002159 0.000280 0
0.001630 0.000269 0
0.001134 0.000249 0
0.000691 0.000210 0
0.000333 0.000148 0
0.000094 0.000067 0
-0.000008 -0.000007 0
0.000000 -0.000000 0
0.000000 0.000000 0
-0.003661 0.006918 0
-0.012149 0.011654 0
-0.022556 0.012462 0
-0.032155 0.009962 0
-0.039222 0.005719 0
-0.043045 0.000974 0
-0.043508 -0.003725 0
-0.040731 -0.008249 0
-0.034856 -0.012542 0
-0.026042 -0.016491 0
-0.014485 -0.019868 0
-0.000459 -0.022324 0
0.015574 -0.023659 0
0.032925 -0.023759 0
0.050790 -0.022533 0
0.068335 -0.020036 0
0.084596 -0.016428 0
0.098619 -0.012026 0
0.109608 -0.007231 0
0.116951 -0.002461 0
0.120374 0.001901 0
0.120028 0.005632 0
0.116456 0.008673 0
0.110294 0.011009 0
0.102195 0.012642 0
0.092788 0.013589 0
0.082665 0.013884 0
0.072351 0.013594 0
0.062296 0.012813 0
0.052850 0.011663 0
0.044267 0.010277 0
0.036696 0.008787 0
0.030195 0.007309 0
0.024746 0.005933 0
0.020270 0.004717 0
0.016651 0.003695 0
0.013752 0.002873 0
0.011432 0.002244 0
0.009554 0.001787 0
0.007999 0.001476 0
0.006667 0.001278 0
0.005480 0.001161 0
0.004389 0.001089 0
0.003368 0.001026 0
0.002420 0.000939 0
0.001572 0.000801 0
0.000868 0.000597 0
0.000356 0.000341 0
0.000069 0.000095 0
0.000000 0.000000 0
0.000000 0.000001 0
-0.004793 0.014037 0
-0.015440 0.022535 0
-0.028372 0.023971 0
-0.040569 0.019721 0
-0.050173 0.012430 0
-0.056413 0.004183 0
-0.059154 -0.004012 0
-0.058563 -0.011871 0
-0.054839 -0.019332 0
-0.048153 -0.026275 0
-0.038663 -0.032464 0
-0.026511 -0.037565 0
-0.011817 -0.041122 0
0.005081 -0.042728 0
0.023788 -0.042241 0
0.043609 -0.039566 0
0.063628 -0.034681 0
0.082814 -0.027894 0
0.100038 -0.019694 0
0.114056 -0.010734 0
0.123904 -0.001824 0
0.128991 0.006214 0
0.129269 0.012874 0
0.125562 0.018044 0
0.118775 0.021733 0
0.109799 0.023999 0
0.099466 0.024949 0
0.088501 0.024741 0
0.077498 0.023577 0
0.066924 0.021694 0
0.057113 0.019339 0
0.048279 0.016750 0
0.040531 0.014136 0
0.033887 0.011661 0
0.028295 0.009441 0
0.023655 0.007544 0
0.019834 0.005994 0
0.016688 0.004784 0
0.014075 0.003886 0
0.011862 0.003255 0
0.009937 0.002837 0
0.008211 0.002571 0
0.006625 0.002393 0
0.005146 0.002238 0
0.003775 0.002045 0
0.002538 0.001763 0
0.001484 0.001364 0
0.000676 0.000865 0
0.000170 0.000349 0
0.000000 0.000000 0
0.000000 0.000001 0
-0.005323 0.022357 0
-0.017171 0.035232 0
-0.031711 0.037589 0
-0.045817 0.031761 0
-0.057593 0.021562 0
-0.066258 0.009955 0
-0.071681 -0.001575 0
-0.074009 -0.012563 0
-0.073499 -0.022952 0
-0.070333 -0.032668 0
-0.064631 -0.041511 0
-0.056468 -0.049171 0
-0.045891 -0.055252 0
-0.032864 -0.059365 0
-0.017408 -0.061061 0
0.000218 -0.059877 0
0.019658 -0.055634 0
0.040313 -0.048436 0
0.061061 -0.038474 0
0.080549 -0.026327 0
0.097410 -0.013034 0
0.110216 0.000267 0
0.117769 0.012101 0
0.119872 0.021502 0
0.117513 0.028405 0
0.111789 0.032897 0
0.103780 0.035182 0
0.094408 0.035562 0
0.084427 0.034390 0
0.074425 0.032048 0
0.064832 0.028922 0
0.055940 0.025370 0
0.047926 0.021702 0
0.040866 0.018169 0
0.034761 0.014950 0
0.029552 0.012156 0
0.025140 0.009840 0
0.021406 0.008003 0
0.018221 0.006614 0
0.015465 0.005614 0
0.013028 0.004929 0
0.010824 0.004473 0
0.008791 0.004154 0
0.006894 0.003876 0
0.005128 0.003548 0
0.003520 0.003092 0
0.002122 0.002459 0
0.001010 0.001656 0
0.000273 0.000771 0
0.000000 0.000000 0
0.000000 0.000001 0
-0.005433 0.031207 0
-0.017728 0.048921 0
-0.033139 0.052616 0
-0.048583 0.045602 0
-0.062140 0.032871 0
-0.072995 0.018272 0
-0.080995 0.003739 0
-0.086241 -0.010053 0
-0.088961 -0.023009 0
-0.089377 -0.035144 0
-0.087595 -0.046329 0
-0.083659 -0.056305 0
-0.077562 -0.064727 0
-0.069247 -0.071212 0
-0.058671 -0.075324 0
-0.045720 -0.076633 0
-0.030300 -0.074776 0
-0.012529 -0.069297 0
0.007144 -0.059931 0
0.028095 -0.047083 0
0.049153 -0.031491 0
0.068526 -0.014146 0
0.084401 0.003218 0
0.095060 0.018300 0
0.099893 0.029815 0
0.100001 0.037731 0
0.096663 0.042330 0
0.090946 0.044094 0
0.083765 0.043561 0
0.075851 0.041290 0
0.067750 0.037824 0
0.059855 0.033656 0
0.052434 0.029210 0
0.045648 0.024825 0
0.039570 0.020756 0
0.034208 0.017165 0
0.029519 0.014140 0
0.025428 0.011703 0
0.021843 0.009828 0
0.018670 0.008449 0
0.015817 0.007478 0
0.013210 0.006808 0
0.010792 0.006323 0
0.008528 0.005901 0
0.006411 0.005419 0
0.004464 0.004770 0
0.002743 0.003874 0
0.001339 0.002714 0
0.000376 0.001359 0
0.000000 0.000000 0
0.000000 0.000001 0
-0.005254 0.040084 0
-0.017414 0.062937 0
-0.033077 0.068444 0
-0.049334 0.060762 0
-0.064247 0.045975 0
-0.076919 0.028811 0
-0.087144 0.011671 0
-0.094991 -0.004597 0
-0.100589 -0.019817 0
-0.104182 -0.034035 0
-0.105902 -0.047230 0
-0.105795 -0.059204 0
-0.103848 -0.069664 0
-0.100005 -0.078257 0
-0.094177 -0.084588 0
-0.086222 -0.088248 0
-0.075991 -0.088826 0
-0.063362 -0.085882 0
-0.048117 -0.079099 0
-0.030202 -0.068336 0
-0.010086 -0.053465 0
0.011340 -0.034982 0
0.032769 -0.014434 0
0.052043 0.006010 0
0.066188 0.023463 0
0.074412 0.036127 0
0.077978 0.044238 0
0.077906 0.048460 0
0.075263 0.049484 0
0.070928 0.048063 0
0.065569 0.044918 0
0.059706 0.040686 0
0.053728 0.035909 0
0.047902 0.031033 0
0.042399 0.026390 0
0.037313 0.022208 0
0.032680 0.018620 0
0.028490 0.015679 0
0.024703 0.013372 0
0.021267 0.011640 0
0.018122 0.010389 0
0.015213 0.009499 0
0.012496 0.008836 0
0.009942 0.008257 0
0.007541 0.007612 0
0.005313 0.006760 0
0.003315 0.005584 0
0.001650 0.004024 0
0.000475 0.002110 0
0.000000 0.000000 0
0.000000 0.000001 0
-0.004881 0.048619 0
-0.016463 0.076743 0
-0.031861 0.084537 0
-0.048451 0.076773 0
-0.064295 0.060457 0
-0.078384 0.041170 0
-0.090427 0.021811 0
-0.100457 0.003392 0
-0.108564 -0.013819 0
-0.114891 -0.029832 0
-0.119641 -0.044717 0
-0.122886 -0.058359 0
-0.124622 -0.070518 0
-0.124799 -0.080884 0
-0.123323 -0.089108 0
-0.120051 -0.094820 0
-0.114804 -0.097636 0
-0.107360 -0.097173 0
-0.097426 -0.093092 0
-0.084759 -0.085114 0
-0.069184 -0.073034 0
-0.050527 -0.057001 0
-0.029152 -0.037486 0
-0.006322 -0.015119 0
0.015794 0.007446 0
0.034107 0.025941 0
0.046616 0.038837 0
0.054108 0.046809 0
0.057782 0.050538 0
0.058592 0.050984 0
0.057302 0.049046 0
0.054587 0.045497 0
0.050982 0.041014 0
0.046882 0.036154 0
0.042576 0.031344 0
0.038270 0.026883 0
0.034096 0.022963 0
0.030130 0.019680 0
0.026402 0.017051 0
0.022914 0.015031 0
0.019652 0.013532 0
0.016592 0.012434 0
0.013708 0.011595 0
0.010981 0.010856 0
0.008403 0.010048 0
0.005989 0.008996 0
0.003793 0.007538 0
0.001924 0.005554 0
0.000569 0.003010 0
0.000000 0.000000 0
0.000000 0.000001 0
-0.004381 0.056546 0
-0.015067 0.089917 0
-0.029779 0.100432 0
-0.046271 0.093197 0
-0.062646 0.075908 0
-0.077769 0.054943 0
-0.091243 0.033743 0
-0.103062 0.013538 0
-0.113321 -0.005384 0
-0.122046 -0.022958 0
-0.129443 -0.039235 0
-0.135629 -0.054224 0
-0.140621 -0.067751 0
-0.144374 -0.079556 0
-0.146792 -0.089337 0
-0.147734 -0.096768 0
-0.147011 -0.101518 0
-0.144381 -0.103261 0
-0.139540 -0.101701 0
-0.132152 -0.096578 0
-0.121834 -0.087697 0
-0.108190 -0.075015 0
-0.091052 -0.058639 0
-0.070460 -0.038936 0
-0.046674 -0.016966 0
-0.021887 0.005305 0
0.000153 0.024237 0
0.017044 0.037294 0
0.029042 0.045000 0
0.036743 0.048543 0
0.041042 0.048924 0
0.042794 0.047005 0
0.042686 0.043614 0
0.041252 0.039439 0
0.038927 0.035002 0
0.036053 0.030687 0
0.032882 0.026760 0
0.029589 0.023373 0
0.026293 0.020588 0
0.023069 0.018390 0
0.019958 0.016711 0
0.016978 0.015443 0
0.014132 0.014447 0
0.011416 0.013562 0
0.008826 0.012604 0
0.006374 0.011370 0
0.004105 0.009650 0
0.002128 0.007248 0
0.000649 0.004034 0
0.000000 0.000000 0
0.000000 0.000001 0
-0.003810 0.063685 0
-0.013385 0.102141 0
-0.027081 0.115740 0
-0.043097 0.109640 0
-0.059639 0.091956 0
-0.075452 0.069766 0
-0.090010 0.047103 0
-0.103262 0.025469 0
-0.115307 0.005165 0
-0.126196 -0.013710 0
-0.135944 -0.031134 0
-0.144733 -0.047181 0
-0.152610 -0.061773 0
-0.159534 -0.074714 0
-0.165406 -0.085749 0
-0.170077 -0.094602 0
-0.173351 -0.100990 0
-0.174983 -0.104644 0
-0.174676 -0.105321 0
-0.172086 -0.102821 0
-0.166807 -0.096996 0
-0.158397 -0.087784 0
-0.146439 -0.075216 0
-0.130554 -0.059496 0
-0.110551 -0.041128 0
-0.086840 -0.020886 0
-0.060773 -0.000094 0
-0.035685 0.017920 0
-0.014516 0.030838 0
0.001709 0.038983 0
0.013497 0.042996 0
0.021460 0.043853 0
0.026318 0.042555 0
0.028811 0.039912 0
0.029545 0.036543 0
0.029022 0.032929 0
0.027635 0.029428 0
0.025679 0.026269 0
0.023381 0.023571 0
0.020904 0.021366 0
0.018361 0.019623 0
0.015823 0.018260 0
0.013332 0.017157 0
0.010907 0.016163 0
0.008556 0.015090 0
0.006289 0.013716 0
0.004141 0.011784 0
0.002208 0.009011 0
0.000701 0.005138 0
0.000000 0.000001 0
0.000000 0.000001 0
-0.003211 0.069930 0
-0.011550 0.113189 0
-0.023987 0.130145 0
-0.039207 0.125755 0
-0.055588 0.108262 0
-0.071782 0.085313 0
-0.087121 0.061553 0
-0.101490 0.038836 0
-0.114993 0.017551 0
-0.127732 -0.002321 0
-0.139628 -0.020698 0
-0.150742 -0.037558 0
-0.161176 -0.052950 0
-0.170904 -0.066760 0
-0.179821 -0.078794 0
-0.187766 -0.088824 0
-0.194528 -0.096612 0
-0.199854 -0.101936 0
-0.203449 -0.104599 0
-0.204982 -0.104448 0
-0.204080 -0.101386 0
-0.200337 -0.095383 0
-0.193329 -0.086482 0
-0.182624 -0.074824 0
-0.167877 -0.060681 0
-0.148961 -0.044474 0
-0.126027 -0.026918 0
-0.099883 -0.008964 0
-0.073504 0.007606 0
-0.049325 0.020531 0
-0.029180 0.029173 0
-0.013537 0.034184 0
-0.001960 0.036263 0
0.006183 0.036212 0
0.011526 0.034791 0
0.014700 0.032597 0
0.016252 0.030103 0
0.016628 0.027628 0
0.016188 0.025363 0
0.015201 0.023410 0
0.013869 0.021792 0
0.012330 0.020472 0
0.010678 0.019363 0
0.008969 0.018338 0
0.007231 0.017222 0
0.005478 0.015785 0
0.003736 0.013731 0
0.002079 0.010689 0
0.000699 0.006243 0
0.000000 0.000001 0
0.000000 0.000002 0
-0.002615 0.075235 0
-0.009669 0.122918 0
-0.020685 0.143398 0
-0.034850 0.141241 0
-0.050778 0.124529 0
-0.067078 0.101300 0
-0.082934 0.076811 0
-0.098140 0.053340 0
-0.112789 0.031407 0
-0.127003 0.010926 0
-0.140805 -0.008123 0
-0.154034 -0.025633 0
-0.166739 -0.041611 0
-0.178931 -0.056069 0
-0.190511 -0.068888 0
-0.201308 -0.079895 0
-0.211095 -0.088902 0
-0.219601 -0.095723 0
-0.226523 -0.100194 0
-0.231531 -0.102190 0
-0.234282 -0.101641 0
-0.234421 -0.098535 0
-0.231594 -0.092929 0
-0.225451 -0.084948 0
-0.215680 -0.074792 0
-0.202049 -0.062736 0
-0.184463 -0.049171 0
-0.163149 -0.034604 0
-0.138660 -0.019720 0
-0.112629 -0.005341 0
-0.087379 0.007208 0
-0.064613 0.016634 0
-0.045477 0.022835 0
-0.030317 0.026426 0
-0.018741 0.028026 0
-0.010196 0.028203 0
-0.004116 0.027499 0
0.000020 0.026334 0
0.002693 0.024998 0
0.004295 0.023685 0
0.005127 0.022494 0
0.005412 0.021451 0
0.005313 0.020519 0
0.004940 0.019610 0
0.004355 0.018580 0
0.003590 0.017211 0
0.002661 0.015183 0
0.001615 0.012049 0
0.000601 0.007217 0
0.000000 0.000000 0
0.000000 0.000002 0
-0.002048 0.079599 0
-0.007826 0.131259 0
-0.017335 0.155325 0
-0.030243 0.155847 0
-0.045464 0.140490 0
-0.061621 0.117470 0
-0.077758 0.092616 0
-0.093548 0.068690 0
-0.109047 0.046414 0
-0.124405 0.025695 0
-0.139706 0.006332 0
-0.154834 -0.011625 0
-0.169575 -0.028053 0
-0.183923 -0.042988 0
-0.197807 -0.056417 0
-0.211061 -0.068240 0
-0.223448 -0.078319 0
-0.234685 -0.086508 0
-0.244450 -0.092669 0
-0.252406 -0.096689 0
-0.258214 -0.098496 0
-0.261549 -0.098071 0
-0.262113 -0.095452 0
-0.259644 -0.090738 0
-0.253927 -0.084082 0
-0.244803 -0.075691 0
-0.232195 -0.065819 0
-0.216150 -0.054767 0
-0.196876 -0.042915 0
-0.174851 -0.030749 0
-0.150804 -0.018844 0
-0.126210 -0.007718 0
-0.102723 0.001968 0
-0.081478 0.009475 0
-0.063162 0.014670 0
-0.048052 0.017973 0
-0.036017 0.019887 0
-0.026595 0.020819 0
-0.019307 0.021089 0
-0.013718 0.020976 0
-0.009461 0.020675 0
-0.006237 0.020286 0
-0.003804 0.019836 0
-0.001986 0.019296 0
-0.000672 0.018572 0
0.000195 0.017480 0
0.000635 0.015705 0
0.000662 0.012749 0
0.000354 0.007858 0
0.000000 0.000000 0
0.000000 0.000002 0
-0.001525 0.083061 0
-0.006087 0.138205 0
-0.014068 0.165814 0
-0.025577 0.169369 0
-0.039872 0.155907 0
-0.055660 0.133594 0
-0.071865 0.108738 0
-0.088019 0.084630 0
-0.104113 0.062264 0
-0.120296 0.041584 0
-0.136678 0.022306 0
-0.153265 0.004236 0
-0.169821 -0.012523 0
-0.186075 -0.027836 0
-0.201938 -0.041750 0
-0.217275 -0.054254 0
-0.231867 -0.065278 0
-0.245426 -0.074721 0
-0.257625 -0.082472 0
-0.268114 -0.088426 0
-0.276545 -0.092498 0
-0.282593 -0.094636 0
-0.285975 -0.094834 0
-0.286469 -0.093135 0
-0.283923 -0.089632 0
-0.278253 -0.084468 0
-0.269450 -0.077825 0
-0.257575 -0.069922 0
-0.242767 -0.061019 0
-0.225268 -0.051413 0
-0.205476 -0.041433 0
-0.183955 -0.031446 0
-0.161349 -0.021897 0
-0.138598 -0.013135 0
-0.116825 -0.005400 0
-0.096843 0.001058 0
-0.079089 0.006043 0
-0.063725 0.009624 0
-0.050731 0.012121 0
-0.039921 0.013839 0
-0.031003 0.015013 0
-0.023641 0.015794 0
-0.017552 0.016268 0
-0.012523 0.016478 0
-0.008404 0.016399 0
-0.005111 0.015905 0
-0.002616 0.014716 0
-0.000938 0.012329 0
-0.000101 0.007880 0
0.000000 -0.000000 0
0.000000 0.000003 0
-0.001057 0.085686 0
-0.004494 0.143801 0
-0.010983 0.174815 0
-0.021010 0.181651 0
-0.034198 0.170573 0
-0.049408 0.149463 0
-0.065487 0.124975 0
-0.081814 0.100938 0
-0.098281 0.078690 0
-0.115011 0.058260 0
-0.132128 0.039302 0
-0.149663 0.021518 0
-0.167542 0.004757 0
-0.185441 -0.010871 0
-0.203037 -0.025217 0
-0.220127 -0.038311 0
-0.236550 -0.050168 0
-0.252048 -0.060750 0
-0.266305 -0.069980 0
-0.278976 -0.077768 0
-0.289702 -0.084017 0
-0.298142 -0.088641 0
-0.303998 -0.091575 0
-0.307036 -0.092790 0
-0.307103 -0.092299 0
-0.304133 -0.090164 0
-0.298145 -0.086496 0
-0.289238 -0.081449 0
-0.277576 -0.075221 0
-0.263383 -0.068040 0
-0.246944 -0.060157 0
-0.228597 -0.051845 0
-0.208754 -0.043389 0
-0.187950 -0.035049 0
-0.166713 -0.027085 0
-0.145583 -0.019763 0
-0.125130 -0.013230 0
-0.105940 -0.007540 0
-0.088389 -0.002716 0
-0.072632 0.001248 0
-0.058677 0.004395 0
-0.046447 0.006835 0
-0.035829 0.008719 0
-0.026696 0.010148 0
-0.018931 0.011160 0
-0.012433 0.011692 0
-0.007183 0.011532 0
-0.003249 0.010234 0
-0.000798 0.006921 0
0.000000 -0.000001 0
0.000000 0.000003 0
-0.000650 0.087555 0
-0.003076 0.148130 0
-0.008152 0.182330 0
-0.016669 0.192585 0
-0.028609 0.184306 0
-0.043051 0.164884 0
-0.058821 0.141144 0
-0.075146 0.117423 0
-0.091794 0.095461 0
-0.108834 0.075432 0
-0.126386 0.056958 0
-0.144495 0.039650 0
-0.163112 0.023256 0
-0.182096 0.007659 0
-0.201088 -0.007064 0
-0.219710 -0.020740 0
-0.237643 -0.033356 0
-0.254721 -0.044965 0
-0.270672 -0.055544 0
-0.285184 -0.065029 0
-0.297909 -0.073331 0
-0.308492 -0.080340 0
-0.316607 -0.085940 0
-0.321977 -0.090030 0
-0.324404 -0.092535 0
-0.323779 -0.093425 0
-0.320091 -0.092719 0
-0.313423 -0.090492 0
-0.303945 -0.086874 0
-0.291897 -0.082045 0
-0.277569 -0.076219 0
-0.261284 -0.069636 0
-0.243393 -0.062543 0
-0.224266 -0.055176 0
-0.204266 -0.047768 0
-0.183788 -0.040525 0
-0.163248 -0.033600 0
-0.143015 -0.027117 0
-0.123414 -0.021187 0
-0.104722 -0.015872 0
-0.087179 -0.011172 0
-0.070986 -0.007054 0
-0.056254 -0.003482 0
-0.043033 -0.000419 0
-0.031337 0.002136 0
-0.021202 0.004157 0
-0.012721 0.005533 0
-0.006100 0.005945 0
-0.001686 0.004630 0
0.000000 -0.000001 0
0.000000 0.000003 0
-0.000307 0.088761 0
-0.001846 0.151303 0
-0.005622 0.188408 0
-0.012649 0.202108 0
-0.023242 0.196956 0
-0.036746 0.179675 0
-0.052027 0.157070 0
-0.068187 0.133911 0
-0.084845 0.112379 0
-0.101991 0.092852 0
-0.119720 0.074964 0
-0.138085 0.058245 0
-0.157051 0.042358 0
-0.176501 0.027105 0
-0.196251 0.012397 0
-0.215957 -0.001755 0
-0.235194 -0.015156 0
-0.253571 -0.027719 0
-0.270875 -0.039517 0
-0.286878 -0.050531 0
-0.301284 -0.060709 0
-0.313749 -0.069943 0
-0.323926 -0.078090 0
-0.331493 -0.084992 0
-0.336184 -0.090496 0
-0.337814 -0.094477 0
-0.336294 -0.096851 0
-0.331638 -0.097594 0
-0.323969 -0.096747 0
-0.313503 -0.094417 0
-0.300534 -0.090770 0
-0.285406 -0.086021 0
-0.268493 -0.080407 0
-0.250169 -0.074176 0
-0.230795 -0.067563 0
-0.210715 -0.060781 0
-0.190253 -0.054003 0
-0.169692 -0.047373 0
-0.149296 -0.041009 0
-0.129323 -0.034987 0
-0.110008 -0.029342 0
-0.091551 -0.024089 0
-0.074128 -0.019234 0
-0.057901 -0.014769 0
-0.043032 -0.010670 0
-0.029731 -0.006925 0
-0.018263 -0.003570 0
-0.009023 -0.000801 0
-0.002615 0.000820 0
0.000000 -0.000002 0
0.000000 0.000003 0
-0.000029 0.089400 0
-0.000809 0.153445 0
-0.003416 0.193132 0
-0.009014 0.210205 0
-0.018205 0.208403 0
-0.030623 0.193669 0
-0.045242 0.172584 0
-0.061073 0.150240 0
-0.077584 0.129266 0
-0.094656 0.110308 0
-0.112344 0.093053 0
-0.130695 0.076981 0
-0.149684 0.061672 0
-0.169214 0.046859 0
-0.189129 0.032393 0
-0.209220 0.018203 0
-0.229201 0.004259 0
-0.248600 -0.009284 0
-0.267034 -0.022237 0
-0.284199 -0.034620 0
-0.299937 -0.046460 0
-0.313967 -0.057697 0
-0.325954 -0.068196 0
-0.335548 -0.077771 0
-0.342423 -0.086213 0
-0.346307 -0.093316 0
-0.347010 -0.098895 0
-0.344445 -0.102816 0
-0.338637 -0.105009 0
-0.329732 -0.105480 0
-0.317981 -0.104316 0
-0.303721 -0.101677 0
-0.287348 -0.097780 0
-0.269279 -0.092875 0
-0.249929 -0.087222 0
-0.229682 -0.081066 0
-0.208881 -0.074624 0
-0.187819 -0.068074 0
-0.166752 -0.061555 0
-0.145905 -0.055160 0
-0.125477 -0.048944 0
-0.105650 -0.042934 0
-0.086601 -0.037131 0
-0.068520 -0.031516 0
-0.051628 -0.026034 0
-0.036196 -0.020612 0
-0.022592 -0.015175 0
-0.011359 -0.009704 0
-0.003366 -0.004393 0
0.000000 -0.000002 0
0.000000 0.000003 0
0.000199 0.089569 0
0.000036 0.154689 0
-0.001540 0.196613 0
-0.005802 0.216898 0
-0.013576 0.218564 0
-0.024788 0.206712 0
-0.038577 0.187519 0
-0.053915 0.166253 0
-0.070124 0.145963 0
-0.086962 0.127614 0
-0.104420 0.111003 0
-0.122528 0.095585 0
-0.141268 0.080878 0
-0.160558 0.066551 0
-0.180268 0.052404 0
-0.200223 0.038317 0
-0.220209 0.024225 0
-0.239995 0.010114 0
-0.259165 -0.003918 0
-0.277295 -0.017627 0
-0.294025 -0.030940 0
-0.309248 -0.043926 0
-0.322707 -0.056508 0
-0.334069 -0.068522 0
-0.342970 -0.079737 0
-0.349066 -0.089889 0
-0.352069 -0.098713 0
-0.351773 -0.105967 0
-0.348083 -0.111459 0
-0.341028 -0.115073 0
-0.330770 -0.116781 0