# vtk DataFile Version 2.0
generated by CFD-lab course output (written by Tobias Neckel) 
ASCII

DATASET STRUCTURED_GRID
DIMENSIONS  51 51 1 
POINTS 2601 float

0.000000 0.000000 0
0.020000 0.000000 0
0.040000 0.000000 0
0.060000 0.000000 0
0.080000 0.000000 0
0.100000 0.000000 0
0.120000 0.000000 0
0.140000 0.000000 0
0.160000 0.000000 0
0.180000 0.000000 0
0.200000 0.000000 0
0.220000 0.000000 0
0.240000 0.000000 0
0.260000 0.000000 0
0.280000 0.000000 0
0.300000 0.000000 0
0.320000 0.000000 0
0.340000 0.000000 0
0.360000 0.000000 0
0.380000 0.000000 0
0.400000 0.000000 0
0.420000 0.000000 0
0.440000 0.000000 0
0.460000 0.000000 0
0.480000 0.000000 0
0.500000 0.000000 0
0.520000 0.000000 0
0.540000 0.000000 0
0.560000 0.000000 0
0.580000 0.000000 0
0.600000 0.000000 0
0.620000 0.000000 0
0.640000 0.000000 0
0.660000 0.000000 0
0.680000 0.000000 0
0.700000 0.000000 0
0.720000 0.000000 0
0.740000 0.000000 0
0.760000 0.000000 0
0.780000 0.000000 0
0.800000 0.000000 0
0.820000 0.000000 0
0.840000 0.000000 0
0.860000 0.000000 0
0.880000 0.000000 0
0.900000 0.000000 0
0.920000 0.000000 0
0.940000 0.000000 0
0.960000 0.000000 0
0.980000 0.000000 0
1.000000 0.000000 0
0.000000 0.020000 0
0.020000 0.020000 0
0.040000 0.020000 0
0.060000 0.020000 0
0.080000 0.020000 0
0.100000 0.020000 0
0.120000 0.020000 0
0.140000 0.020000 0
0.160000 0.020000 0
0.180000 0.020000 0
0.200000 0.020000 0
0.220000 0.020000 0
0.240000 0.020000 0
0.260000 0.020000 0
0.280000 0.020000 0
0.300000 0.020000 0
0.320000 0.020000 0
0.340000 0.020000 0
0.360000 0.020000 0
0.380000 0.020000 0
0.400000 0.020000 0
0.420000 0.020000 0
0.440000 0.020000 0
0.460000 0.020000 0
0.480000 0.020000 0
0.500000 0.020000 0
0.520000 0.020000 0
0.540000 0.020000 0
0.560000 0.020000 0
0.580000 0.020000 0
0.600000 0.020000 0
0.620000 0.020000 0
0.640000 0.020000 0
0.660000 0.020000 0
0.680000 0.020000 0
0.700000 0.020000 0
0.720000 0.020000 0
0.740000 0.020000 0
0.760000 0.020000 0
0.780000 0.020000 0
0.800000 0.020000 0
0.820000 0.020000 0
0.840000 0.020000 0
0.860000 0.020000 0
0.880000 0.020000 0
0.900000 0.020000 0
0.920000 0.020000 0
0.940000 0.020000 0
0.960000 0.020000 0
0.980000 0.020000 0
1.000000 0.020000 0
0.000000 0.040000 0
0.020000 0.040000 0
0.040000 0.040000 0
0.060000 0.040000 0
0.080000 0.040000 0
0.100000 0.040000 0
0.120000 0.040000 0
0.140000 0.040000 0
0.160000 0.040000 0
0.180000 0.040000 0
0.200000 0.040000 0
0.220000 0.040000 0
0.240000 0.040000 0
0.260000 0.040000 0
0.280000 0.040000 0
0.300000 0.040000 0
0.320000 0.040000 0
0.340000 0.040000 0
0.360000 0.040000 0
0.380000 0.040000 0
0.400000 0.040000 0
0.420000 0.040000 0
0.440000 0.040000 0
0.460000 0.040000 0
0.480000 0.040000 0
0.500000 0.040000 0
0.520000 0.040000 0
0.540000 0.040000 0
0.560000 0.040000 0
0.580000 0.040000 0
0.600000 0.040000 0
0.620000 0.040000 0
0.640000 0.040000 0
0.660000 0.040000 0
0.680000 0.040000 0
0.700000 0.040000 0
0.720000 0.040000 0
0.740000 0.040000 0
0.760000 0.040000 0
0.780000 0.040000 0
0.800000 0.040000 0
0.820000 0.040000 0
0.840000 0.040000 0
0.860000 0.040000 0
0.880000 0.040000 0
0.900000 0.040000 0
0.920000 0.040000 0
0.940000 0.040000 0
0.960000 0.040000 0
0.980000 0.040000 0
1.000000 0.040000 0
0.000000 0.060000 0
0.020000 0.060000 0
0.040000 0.060000 0
0.060000 0.060000 0
0.080000 0.060000 0
0.100000 0.060000 0
0.120000 0.060000 0
0.140000 0.060000 0
0.160000 0.060000 0
0.180000 0.060000 0
0.200000 0.060000 0
0.220000 0.060000 0
0.240000 0.060000 0
0.260000 0.060000 0
0.280000 0.060000 0
0.300000 0.060000 0
0.320000 0.060000 0
0.340000 0.060000 0
0.360000 0.060000 0
0.380000 0.060000 0
0.400000 0.060000 0
0.420000 0.060000 0
0.440000 0.060000 0
0.460000 0.060000 0
0.480000 0.060000 0
0.500000 0.060000 0
0.520000 0.060000 0
0.540000 0.060000 0
0.560000 0.060000 0
0.580000 0.060000 0
0.600000 0.060000 0
0.620000 0.060000 0
0.640000 0.060000 0
0.660000 0.060000 0
0.680000 0.060000 0
0.700000 0.060000 0
0.720000 0.060000 0
0.740000 0.060000 0
0.760000 0.060000 0
0.780000 0.060000 0
0.800000 0.060000 0
0.820000 0.060000 0
0.840000 0.060000 0
0.860000 0.060000 0
0.880000 0.060000 0
0.900000 0.060000 0
0.920000 0.060000 0
0.940000 0.060000 0
0.960000 0.060000 0
0.980000 0.060000 0
1.000000 0.060000 0
0.000000 0.080000 0
0.020000 0.080000 0
0.040000 0.080000 0
0.060000 0.080000 0
0.080000 0.080000 0
0.100000 0.080000 0
0.120000 0.080000 0
0.140000 0.080000 0
0.160000 0.080000 0
0.180000 0.080000 0
0.200000 0.080000 0
0.220000 0.080000 0
0.240000 0.080000 0
0.260000 0.080000 0
0.280000 0.080000 0
0.300000 0.080000 0
0.320000 0.080000 0
0.340000 0.080000 0
0.360000 0.080000 0
0.380000 0.080000 0
0.400000 0.080000 0
0.420000 0.080000 0
0.440000 0.080000 0
0.460000 0.080000 0
0.480000 0.080000 0
0.500000 0.080000 0
0.520000 0.080000 0
0.540000 0.080000 0
0.560000 0.080000 0
0.580000 0.080000 0
0.600000 0.080000 0
0.620000 0.080000 0
0.640000 0.080000 0
0.660000 0.080000 0
0.680000 0.080000 0
0.700000 0.080000 0
0.720000 0.080000 0
0.740000 0.080000 0
0.760000 0.080000 0
0.780000 0.080000 0
0.800000 0.080000 0
0.820000 0.080000 0
0.840000 0.080000 0
0.860000 0.080000 0
0.880000 0.080000 0
0.900000 0.080000 0
0.920000 0.080000 0
0.940000 0.080000 0
0.960000 0.080000 0
0.980000 0.080000 0
1.000000 0.080000 0
0.000000 0.100000 0
0.020000 0.100000 0
0.040000 0.100000 0
0.060000 0.100000 0
0.080000 0.100000 0
0.100000 0.100000 0
0.120000 0.100000 0
0.140000 0.100000 0
0.160000 0.100000 0
0.180000 0.100000 0
0.200000 0.100000 0
0.220000 0.100000 0
0.240000 0.100000 0
0.260000 0.100000 0
0.280000 0.100000 0
0.300000 0.100000 0
0.320000 0.100000 0
0.340000 0.100000 0
0.360000 0.100000 0
0.380000 0.100000 0
0.400000 0.100000 0
0.420000 0.100000 0
0.440000 0.100000 0
0.460000 0.100000 0
0.480000 0.100000 0
0.500000 0.100000 0
0.520000 0.100000 0
0.540000 0.100000 0
0.560000 0.100000 0
0.580000 0.100000 0
0.600000 0.100000 0
0.620000 0.100000 0
0.640000 0.100000 0
0.660000 0.100000 0
0.680000 0.100000 0
0.700000 0.100000 0
0.720000 0.100000 0
0.740000 0.100000 0
0.760000 0.100000 0
0.780000 0.100000 0
0.800000 0.100000 0
0.820000 0.100000 0
0.840000 0.100000 0
0.860000 0.100000 0
0.880000 0.100000 0
0.900000 0.100000 0
0.920000 0.100000 0
0.940000 0.100000 0
0.960000 0.100000 0
0.980000 0.100000 0
1.000000 0.100000 0
0.000000 0.120000 0
0.020000 0.120000 0
0.040000 0.120000 0
0.060000 0.120000 0
0.080000 0.120000 0
0.100000 0.120000 0
0.120000 0.120000 0
0.140000 0.120000 0
0.160000 0.120000 0
0.180000 0.120000 0
0.200000 0.120000 0
0.220000 0.120000 0
0.240000 0.120000 0
0.260000 0.120000 0
0.280000 0.120000 0
0.300000 0.120000 0
0.320000 0.120000 0
0.340000 0.120000 0
0.360000 0.120000 0
0.380000 0.120000 0
0.400000 0.120000 0
0.420000 0.120000 0
0.440000 0.120000 0
0.460000 0.120000 0
0.480000 0.120000 0
0.500000 0.120000 0
0.520000 0.120000 0
0.540000 0.120000 0
0.560000 0.120000 0
0.580000 0.120000 0
0.600000 0.120000 0
0.620000 0.120000 0
0.640000 0.120000 0
0.660000 0.120000 0
0.680000 0.120000 0
0.700000 0.120000 0
0.720000 0.120000 0
0.740000 0.120000 0
0.760000 0.120000 0
0.780000 0.120000 0
0.800000 0.120000 0
0.820000 0.120000 0
0.840000 0.120000 0
0.860000 0.120000 0
0.880000 0.120000 0
0.900000 0.120000 0
0.920000 0.120000 0
0.940000 0.120000 0
0.960000 0.120000 0
0.980000 0.120000 0
1.000000 0.120000 0
0.000000 0.140000 0
0.020000 0.140000 0
0.040000 0.140000 0
0.060000 0.140000 0
0.080000 0.140000 0
0.100000 0.140000 0
0.120000 0.140000 0
0.140000 0.140000 0
0.160000 0.140000 0
0.180000 0.140000 0
0.200000 0.140000 0
0.220000 0.140000 0
0.240000 0.140000 0
0.260000 0.140000 0
0.280000 0.140000 0
0.300000 0.140000 0
0.320000 0.140000 0
0.340000 0.140000 0
0.360000 0.140000 0
0.380000 0.140000 0
0.400000 0.140000 0
0.420000 0.140000 0
0.440000 0.140000 0
0.460000 0.140000 0
0.480000 0.140000 0
0.500000 0.140000 0
0.520000 0.140000 0
0.540000 0.140000 0
0.560000 0.140000 0
0.580000 0.140000 0
0.600000 0.140000 0
0.620000 0.140000 0
0.640000 0.140000 0
0.660000 0.140000 0
0.680000 0.140000 0
0.700000 0.140000 0
0.720000 0.140000 0
0.740000 0.140000 0
0.760000 0.140000 0
0.780000 0.140000 0
0.800000 0.140000 0
0.820000 0.140000 0
0.840000 0.140000 0
0.860000 0.140000 0
0.880000 0.140000 0
0.900000 0.140000 0
0.920000 0.140000 0
0.940000 0.140000 0
0.960000 0.140000 0
0.980000 0.140000 0
1.000000 0.140000 0
0.000000 0.160000 0
0.020000 0.160000 0
0.040000 0.160000 0
0.060000 0.160000 0
0.080000 0.160000 0
0.100000 0.160000 0
0.120000 0.160000 0
0.140000 0.160000 0
0.160000 0.160000 0
0.180000 0.160000 0
0.200000 0.160000 0
0.220000 0.160000 0
0.240000 0.160000 0
0.260000 0.160000 0
0.280000 0.160000 0
0.300000 0.160000 0
0.320000 0.160000 0
0.340000 0.160000 0
0.360000 0.160000 0
0.380000 0.160000 0
0.400000 0.160000 0
0.420000 0.160000 0
0.440000 0.160000 0
0.460000 0.160000 0
0.480000 0.160000 0
0.500000 0.160000 0
0.520000 0.160000 0
0.540000 0.160000 0
0.560000 0.160000 0
0.580000 0.160000 0
0.600000 0.160000 0
0.620000 0.160000 0
0.640000 0.160000 0
0.660000 0.160000 0
0.680000 0.160000 0
0.700000 0.160000 0
0.720000 0.160000 0
0.740000 0.160000 0
0.760000 0.160000 0
0.780000 0.160000 0
0.800000 0.160000 0
0.820000 0.160000 0
0.840000 0.160000 0
0.860000 0.160000 0
0.880000 0.160000 0
0.900000 0.160000 0
0.920000 0.160000 0
0.940000 0.160000 0
0.960000 0.160000 0
0.980000 0.160000 0
1.000000 0.160000 0
0.000000 0.180000 0
0.020000 0.180000 0
0.040000 0.180000 0
0.060000 0.180000 0
0.080000 0.180000 0
0.100000 0.180000 0
0.120000 0.180000 0
0.140000 0.180000 0
0.160000 0.180000 0
0.180000 0.180000 0
0.200000 0.180000 0
0.220000 0.180000 0
0.240000 0.180000 0
0.260000 0.180000 0
0.280000 0.180000 0
0.300000 0.180000 0
0.320000 0.180000 0
0.340000 0.180000 0
0.360000 0.180000 0
0.380000 0.180000 0
0.400000 0.180000 0
0.420000 0.180000 0
0.440000 0.180000 0
0.460000 0.180000 0
0.480000 0.180000 0
0.500000 0.180000 0
0.520000 0.180000 0
0.540000 0.180000 0
0.560000 0.180000 0
0.580000 0.180000 0
0.600000 0.180000 0
0.620000 0.180000 0
[...]
POINT_DATA 2601 

VECTORS velocity float
0.000000 0.000000 0
-0.000000 0.000000 0
0.000000 0.000000 0
0.000000 0.000000 0
-0.000000 0.000000 0
-0.000001 0.000000 0
-0.000001 0.000000 0
-0.000001 0.000000 0
-0.000000 0.000000 0
0.000000 0.000000 0
-0.000000 0.000000 0
-0.000000 0.000000 0
-0.000001 0.000000 0
-0.000001 0.000000 0
-0.000001 0.000000 0
-0.000001 0.000000 0
-0.000001 0.000000 0
-0.000001 0.000000 0
-0.000000 0.000000 0
-0.000000 0.000000 0
-0.000000 0.000000 0
0.000000 0.000000 0
0.000000 0.000000 0
0.000000 0.000000 0
0.000000 0.000000 0
0.000000 0.000000 0
0.000000 0.000000 0
0.000000 0.000000 0
0.000000 0.000000 0
0.000000 0.000000 0
0.000000 0.000000 0
0.000000 0.000000 0
0.000000 0.000000 0
0.000000 0.000000 0
0.000000 0.000000 0
0.000000 0.000000 0
0.000000 0.000000 0
0.000000 0.000000 0
0.000000 0.000000 0
0.000000 0.000000 0
0.000000 0.000000 0
0.000000 0.000000 0
0.000000 0.000000 0
0.000000 0.000000 0
0.000000 0.000000 0
0.000000 0.000000 0
0.000000 0.000000 0
0.000000 0.000000 0
0.000000 0.000000 0
0.000000 0.000000 0
0.000000 0.000000 0
0.000000 -0.000000 0
-0.001837 0.001957 0
-0.007274 0.003919 0
-0.014439 0.004438 0
-0.021227 0.003666 0
-0.026304 0.002253 0
-0.029174 0.000708 0
-0.029799 -0.000783 0
-0.028262 -0.002213 0
-0.024624 -0.003592 0
-0.018956 -0.004901 0
-0.011366 -0.006074 0
-0.002047 -0.006971 0
0.008683 -0.007532 0
0.020289 -0.007718 0
0.032204 -0.007471 0
0.043850 -0.006795 0
0.054563 -0.005737 0
0.063791 -0.004399 0
0.071040 -0.002896 0
0.075989 -0.001375 0
0.078529 0.000029 0
0.078747 0.001262 0
0.076918 0.002309 0
0.073391 0.003145 0
0.068531 0.003765 0
0.062711 0.004172 0
0.056293 0.004369 0
0.049620 0.004368 0
0.043000 0.004192 0
0.036690 0.003876 0
0.030887 0.003461 0
0.025719 0.002993 0
0.021250 0.002513 0
0.017481 0.002057 0
0.014371 0.001648 0
0.011846 0.001301 0
0.009814 0.001020 0
0.008181 0.000804 0
0.006852 0.000647 0
0.005745 0.000539 0
0.004790 0.000472 0
0.003933 0.000433 0
0.003139 0.000411 0
0.002389 0.000391 0
0.001688 0.000362 0
0.001059 0.000311 0
0.000541 0.000228 0
0.000179 0.000116 0
0.000007 0.000008 0
0.000000 -0.000000 0
0.000000 -0.000000 0
-0.003814 0.007275 0
-0.012878 0.012603 0
-0.024271 0.013952 0
-0.035177 0.011863 0
-0.043805 0.007946 0
-0.049408 0.003495 0
-0.051839 -0.000912 0
-0.051194 -0.005174 0
-0.047583 -0.009306 0
-0.041116 -0.013259 0
-0.031932 -0.016909 0
-0.020220 -0.020049 0
-0.006216 -0.022337 0
0.009622 -0.023522 0
0.026736 -0.023562 0
0.044344 -0.022359 0
0.061613 -0.019941 0
0.077744 -0.016477 0
0.091806 -0.012198 0
0.103007 -0.007489 0
0.110759 -0.002758 0
0.114712 0.001611 0
0.114933 0.005357 0
0.111920 0.008387 0
0.106311 0.010680 0
0.098771 0.012238 0
0.089948 0.013090 0
0.080436 0.013293 0
0.070756 0.012930 0
0.061342 0.012113 0
0.052520 0.010970 0
0.044517 0.009637 0
0.037455 0.008238 0
0.031372 0.006879 0
0.026235 0.005635 0
0.021959 0.004557 0
0.018430 0.003665 0
0.015516 0.002962 0
0.013089 0.002436 0
0.011027 0.002062 0
0.009228 0.001812 0
0.007610 0.001651 0
0.006118 0.001544 0
0.004724 0.001450 0
0.003430 0.001330 0
0.002264 0.001148 0
0.001283 0.000880 0
0.000551 0.000534 0
0.000120 0.000179 0
0.000000 -0.000000 0
0.000000 0.000000 0
-0.005027 0.014835 0
-0.016396 0.024374 0
-0.030476 0.026736 0
-0.044140 0.023200 0
-0.055464 0.016485 0
-0.063641 0.008744 0
-0.068491 0.001003 0
-0.070100 -0.006469 0
-0.068660 -0.013671 0
-0.064330 -0.020553 0
-0.057254 -0.026972 0
-0.047586 -0.032687 0
-0.035487 -0.037373 0
-0.021069 -0.040670 0
-0.004592 -0.042192 0
0.013518 -0.041671 0
0.032776 -0.039137 0
0.052322 -0.034592 0
0.071197 -0.028159 0
0.088393 -0.020328 0
0.102835 -0.011676 0
0.113469 -0.002913 0
0.119626 0.005101 0
0.121112 0.011767 0
0.118569 0.016914 0
0.112894 0.020535 0
0.104996 0.022704 0
0.095702 0.023559 0
0.085732 0.023286 0
0.075675 0.022112 0
0.065977 0.020286 0
0.056953 0.018058 0
0.048798 0.015658 0
0.041603 0.013277 0
0.035376 0.011061 0
0.030059 0.009106 0
0.025555 0.007463 0
0.021741 0.006145 0
0.018488 0.005136 0
0.015670 0.004400 0
0.013180 0.003888 0
0.010926 0.003542 0
0.008846 0.003297 0
0.006907 0.003080 0
0.005105 0.002822 0
0.003472 0.002457 0
0.002065 0.001941 0
0.000964 0.001279 0
0.000253 0.000558 0
0.000000 0.000000 0
0.000000 0.000000 0
-0.005595 0.023671 0
-0.018220 0.038050 0
-0.033937 0.041695 0
-0.049502 0.036853 0
-0.062942 0.027448 0
-0.073440 0.016522 0
-0.080824 0.005548 0
-0.085175 -0.005006 0
-0.086711 -0.015078 0
-0.085633 -0.024665 0
-0.082089 -0.033654 0
-0.076191 -0.041817 0
-0.068024 -0.048853 0
-0.057640 -0.054416 0
-0.045075 -0.058149 0
-0.030332 -0.059727 0
-0.013528 -0.058745 0
0.004927 -0.054898 0
0.024601 -0.048269 0
0.044734 -0.039127 0
0.064117 -0.027835 0
0.081394 -0.015181 0
0.095328 -0.002287 0
0.104690 0.009444 0
0.108675 0.018898 0
0.108133 0.025810 0
0.104145 0.030282 0
0.097725 0.032557 0
0.089801 0.032958 0
0.081132 0.031869 0
0.072296 0.029692 0
0.063717 0.026816 0
0.055682 0.023588 0
0.048361 0.020301 0
0.041828 0.017180 0
0.036083 0.014378 0
0.031075 0.011983 0
0.026719 0.010029 0
0.022912 0.008506 0
0.019548 0.007370 0
0.016531 0.006556 0
0.013777 0.005985 0
0.011227 0.005563 0
0.008844 0.005191 0
0.006623 0.004766 0
0.004589 0.004188 0
0.002804 0.003387 0
0.001361 0.002346 0
0.000380 0.001144 0
0.000000 0.000000 0
0.000000 0.000000 0
-0.005715 0.033055 0
-0.018781 0.052716 0
-0.035324 0.058018 0
-0.052131 0.052206 0
-0.067202 0.040424 0
-0.079687 0.026625 0
-0.089409 0.012738 0
-0.096452 -0.000583 0
-0.100965 -0.013214 0
-0.103173 -0.025175 0
-0.103241 -0.036414 0
-0.101261 -0.046751 0
-0.097279 -0.055923 0
-0.091303 -0.063618 0
-0.083314 -0.069500 0
-0.073270 -0.073219 0
-0.061157 -0.074397 0
-0.046865 -0.072721 0
-0.030388 -0.067966 0
-0.011996 -0.059843 0
0.007754 -0.048337 0
0.028108 -0.034124 0
0.047815 -0.018194 0
0.065152 -0.001580 0
0.078125 0.013470 0
0.085545 0.025065 0
0.088207 0.033113 0
0.087140 0.037903 0
0.083456 0.039880 0
0.078071 0.039618 0
0.071702 0.037701 0
0.064910 0.034672 0
0.058105 0.031013 0
0.051561 0.027131 0
0.045449 0.023339 0
0.039854 0.019859 0
0.034798 0.016827 0
0.030256 0.014308 0
0.026176 0.012306 0
0.022490 0.010781 0
0.019129 0.009659 0
0.016030 0.008847 0
0.013141 0.008230 0
0.010432 0.007684 0
0.007894 0.007077 0
0.005548 0.006276 0
0.003453 0.005170 0
0.001716 0.003704 0
0.000495 0.001919 0
0.000000 0.000000 0
0.000000 0.000000 0
-0.005530 0.042451 0
-0.018421 0.067659 0
-0.035135 0.075047 0
-0.052634 0.068732 0
-0.068894 0.055004 0
-0.082991 0.038728 0
-0.094710 0.022311 0
-0.104116 0.006549 0
-0.111317 -0.008357 0
-0.116472 -0.022389 0
-0.119772 -0.035564 0
-0.121319 -0.047778 0
-0.121149 -0.058810 0
-0.119259 -0.068382 0
-0.115615 -0.076182 0
-0.110157 -0.081884 0
-0.102802 -0.085151 0
-0.093408 -0.085667 0
-0.081866 -0.083138 0
-0.068082 -0.077270 0
-0.051903 -0.067939 0
-0.033387 -0.055242 0
-0.013151 -0.039331 0
0.007761 -0.020865 0
0.028036 -0.001495 0
0.045119 0.015728 0
0.056713 0.028686 0
0.063281 0.037308 0
0.065986 0.042028 0
0.065792 0.043622 0
0.063516 0.042853 0
0.059884 0.040413 0
0.055454 0.036937 0
0.050632 0.032956 0
0.045710 0.028887 0
0.040888 0.025029 0
0.036287 0.021581 0
0.031965 0.018651 0
0.027941 0.016272 0
0.024202 0.014417 0
0.020723 0.013017 0
0.017471 0.011973 0
0.014413 0.011160 0
0.011529 0.010439 0
0.008809 0.009650 0
0.006269 0.008629 0
0.003966 0.007219 0
0.002011 0.005304 0
0.000595 0.002860 0
0.000000 0.000000 0
0.000000 -0.000000 0
-0.005141 0.051474 0
-0.017400 0.082322 0
-0.033760 0.092233 0
-0.051472 0.085965 0
-0.068513 0.070780 0
-0.083847 0.052439 0
-0.097182 0.033862 0
-0.108563 0.016024 0
-0.118095 -0.000858 0
-0.125842 -0.016719 0
-0.131959 -0.031565 0
-0.136591 -0.045374 0
-0.139783 -0.057984 0
-0.141528 -0.069153 0
-0.141787 -0.078602 0
-0.140491 -0.086033 0
-0.137540 -0.091146 0
-0.132793 -0.093657 0
-0.126090 -0.093293 0
-0.117225 -0.089807 0
-0.105939 -0.083031 0
-0.092046 -0.072876 0
-0.075472 -0.059343 0
-0.056199 -0.042767 0
-0.034666 -0.023888 0
-0.012180 -0.003612 0
0.008319 0.014951 0
0.024476 0.028629 0
0.035654 0.037369 0
0.042565 0.042088 0
0.046099 0.043609 0
0.047143 0.042733 0
0.046383 0.040266 0
0.044371 0.036875 0
0.041549 0.033083 0
0.038255 0.029282 0
0.034736 0.025750 0
0.031154 0.022654 0
0.027618 0.020069 0
0.024190 0.017999 0
0.020902 0.016391 0
0.017763 0.015156 0
0.014772 0.014172 0
0.011921 0.013289 0
0.009206 0.012337 0
0.006641 0.011119 0
0.004274 0.009428 0
0.002215 0.007074 0
0.000676 0.003930 0
0.000000 0.000000 0
0.000000 -0.000000 0
-0.004624 0.059851 0
-0.015928 0.096279 0
-0.031515 0.109119 0
-0.049024 0.103485 0
-0.066473 0.087378 0
-0.082697 0.067396 0
-0.097297 0.047026 0
-0.110286 0.027462 0
-0.121769 0.008924 0
-0.131804 -0.008524 0
-0.140415 -0.024815 0
-0.147769 -0.039955 0
-0.153937 -0.053874 0
-0.158915 -0.066378 0
-0.162654 -0.077219 0
-0.165071 -0.086132 0
-0.166054 -0.092849 0
-0.165459 -0.097117 0
-0.163113 -0.098706 0
-0.158801 -0.097420 0
-0.152260 -0.093118 0
-0.143208 -0.085709 0
-0.131342 -0.075178 0
-0.116364 -0.061671 0
-0.098197 -0.045514 0
-0.077079 -0.027257 0
-0.053493 -0.007970 0
-0.030194 0.009973 0
-0.010009 0.023938 0
0.005508 0.033177 0
0.016710 0.038276 0
0.024194 0.040129 0
0.028636 0.039709 0
0.030773 0.037791 0
0.031208 0.035003 0
0.030434 0.031842 0
0.028841 0.028682 0
0.026716 0.025769 0
0.024278 0.023236 0
0.021681 0.021133 0
0.019032 0.019444 0
0.016395 0.018103 0
0.013808 0.017003 0
0.011291 0.016004 0
0.008850 0.014929 0
0.006499 0.013561 0
0.004275 0.011645 0
0.002277 0.008902 0
0.000722 0.005075 0
0.000000 0.000000 0
0.000000 -0.000000 0
-0.004034 0.067402 0
-0.014171 0.109215 0
-0.028663 0.125329 0
-0.045609 0.120922 0
-0.063128 0.104452 0
-0.079926 0.083262 0
-0.095474 0.061452 0
-0.109734 0.040496 0
-0.122817 0.020661 0
-0.134814 0.001927 0
-0.145702 -0.015600 0
-0.155494 -0.031852 0
-0.164317 -0.046839 0
-0.172181 -0.060437 0
-0.179027 -0.072446 0
-0.184755 -0.082633 0
-0.189229 -0.090759 0
-0.192287 -0.096597 0
-0.193745 -0.099950 0
-0.193390 -0.100660 0
-0.190981 -0.098624 0
-0.186244 -0.093794 0
-0.178872 -0.086187 0
-0.168533 -0.075912 0
-0.154945 -0.063172 0
-0.137921 -0.048316 0
-0.117470 -0.031934 0
-0.094114 -0.014854 0
-0.069762 0.001667 0
-0.046905 0.015370 0
-0.027472 0.024922 0
-0.012297 0.030807 0
-0.001044 0.033686 0
0.006895 0.034303 0
0.012106 0.033422 0
0.015191 0.031649 0
0.016687 0.029468 0
0.017025 0.027217 0
0.016557 0.025104 0
0.015549 0.023245 0
0.014192 0.021678 0
0.012625 0.020380 0
0.010938 0.019275 0
0.009187 0.018247 0
0.007403 0.017129 0
0.005602 0.015694 0
0.003815 0.013650 0
0.002118 0.010626 0
0.000710 0.006207 0
0.000000 0.000000 0
0.000000 -0.000000 0
-0.003417 0.074022 0
-0.012265 0.120909 0
-0.025427 0.140557 0
-0.041504 0.137949 0
-0.058786 0.121693 0
-0.075875 0.099741 0
-0.092093 0.076835 0
-0.107330 0.054807 0
-0.121699 0.034004 0
-0.135311 0.014362 0
-0.148195 -0.004135 0
-0.160223 -0.021341 0
-0.171432 -0.037188 0
-0.181874 -0.051667 0
-0.191492 -0.064645 0
-0.200167 -0.075931 0
-0.207740 -0.085317 0
-0.214017 -0.092601 0
-0.218788 -0.097603 0
-0.221828 -0.100185 0
-0.222902 -0.100264 0
-0.221767 -0.097817 0
-0.218165 -0.092890 0
-0.211832 -0.085599 0
-0.202511 -0.076125 0
-0.189973 -0.064732 0
-0.174084 -0.051777 0
-0.154930 -0.037736 0
-0.132883 -0.023270 0
-0.108899 -0.009113 0
-0.085174 0.003667 0
-0.063446 0.013701 0
-0.044911 0.020516 0
-0.030105 0.024641 0
-0.018724 0.026707 0
-0.010266 0.027261 0
-0.004207 0.026848 0
-0.000053 0.025898 0
0.002654 0.024712 0
0.004295 0.023498 0
0.005160 0.022368 0
0.005468 0.021357 0
0.005381 0.020441 0
0.005007 0.019539 0
0.004412 0.018514 0
0.003630 0.017149 0
0.002684 0.015129 0
0.001624 0.012007 0
0.000602 0.007193 0
0.000000 0.000000 0
0.000000 0.000000 0
-0.002805 0.079668 0
-0.010319 0.131225 0
-0.021995 0.154567 0
-0.036952 0.154280 0
-0.053720 0.138822 0
-0.070844 0.116570 0
-0.087487 0.092908 0
-0.103439 0.070103 0
-0.118798 0.048642 0
-0.133698 0.028422 0
-0.148198 0.009312 0
-0.162233 -0.008615 0
-0.175617 -0.025189 0
-0.188357 -0.040377 0
-0.200429 -0.054152 0
-0.211711 -0.066385 0
-0.222023 -0.076909 0
-0.231143 -0.085548 0
-0.238826 -0.092139 0
-0.244816 -0.096547 0
-0.248862 -0.098686 0
-0.250725 -0.098531 0
-0.250186 -0.096122 0
-0.247048 -0.091566 0
-0.241140 -0.085031 0
-0.232321 -0.076743 0
-0.220500 -0.066977 0
-0.205670 -0.056055 0
-0.187956 -0.044363 0
-0.167734 -0.032339 0
-0.145559 -0.020531 0
-0.122552 -0.009456 0
-0.100292 0.000345 0
-0.079959 0.008116 0
-0.062270 0.013583 0
-0.047560 0.017132 0
-0.035766 0.019255 0
-0.026477 0.020356 0
-0.019252 0.020756 0
-0.013687 0.020739 0
-0.009435 0.020504 0
-0.006208 0.020159 0
-0.003772 0.019737 0
-0.001957 0.019216 0
-0.000650 0.018505 0
0.000205 0.017423 0
0.000634 0.015656 0
0.000654 0.012708 0
0.000348 0.007831 0
0.000000 0.000000 0
0.000000 0.000000 0
-0.002222 0.084342 0
-0.008416 0.140098 0
-0.018523 0.167189 0
-0.032163 0.169672 0
-0.048169 0.155585 0
-0.065092 0.133510 0
-0.081941 0.109432 0
-0.098377 0.086118 0
-0.114456 0.064263 0
-0.130326 0.043761 0
-0.146080 0.024400 0
-0.161716 0.006079 0
-0.177055 -0.011063 0
-0.191861 -0.026855 0
-0.206087 -0.041291 0
-0.219642 -0.054337 0
-0.232347 -0.065885 0
-0.243963 -0.075797 0
-0.254215 -0.083930 0
-0.262813 -0.090149 0
-0.269472 -0.094355 0
-0.273933 -0.096493 0
-0.275975 -0.096568 0
-0.275427 -0.094645 0
-0.272177 -0.090852 0
-0.266166 -0.085371 0
-0.257390 -0.078428 0
-0.245902 -0.070279 0
-0.231817 -0.061207 0
-0.215340 -0.051510 0
-0.196773 -0.041515 0
-0.176606 -0.031567 0
-0.155395 -0.022076 0
-0.133899 -0.013380 0
-0.113195 -0.005692 0
-0.094092 0.000756 0
-0.077035 0.005765 0
-0.062206 0.009384 0
-0.049611 0.011923 0
-0.039094 0.013681 0
-0.030386 0.014888 0
-0.023179 0.015695 0
-0.017208 0.016190 0
-0.012274 0.016417 0
-0.008234 0.016352 0
-0.005007 0.015866 0
-0.002564 0.014680 0
-0.000922 0.012292 0
-0.000103 0.007848 0
0.000000 -0.000000 0
0.000000 0.000000 0
-0.001684 0.088084 0
-0.006618 0.147525 0
-0.015137 0.178313 0
-0.027316 0.183925 0
-0.042344 0.171753 0
-0.058847 0.150344 0
-0.075702 0.126194 0
-0.092420 0.102618 0
-0.108984 0.080590 0
-0.125538 0.060046 0
-0.142199 0.040701 0
-0.158990 0.022360 0
-0.175841 0.004957 0
-0.192478 -0.011345 0
-0.208615 -0.026371 0
-0.224129 -0.040125 0
-0.238881 -0.052588 0
-0.252648 -0.063680 0
-0.265146 -0.073288 0
-0.276060 -0.081289 0
-0.285071 -0.087566 0
-0.291885 -0.092029 0
-0.296248 -0.094628 0
-0.297974 -0.095363 0
-0.296951 -0.094293 0
-0.293146 -0.091531 0
-0.286605 -0.087241 0
-0.277440 -0.081628 0
-0.265820 -0.074925 0
-0.251958 -0.067383 0
-0.236103 -0.059264 0
-0.218559 -0.050834 0
-0.199673 -0.042362 0
-0.179921 -0.034083 0
-0.159772 -0.026224 0
-0.139709 -0.019029 0
-0.120248 -0.012631 0
-0.101945 -0.007068 0
-0.085166 -0.002355 0
-0.070065 0.001514 0
-0.056661 0.004589 0
-0.044888 0.006981 0
-0.034649 0.008832 0
-0.025830 0.010241 0
-0.018322 0.011238 0
-0.012034 0.011753 0
-0.006950 0.011572 0
-0.003144 0.010248 0
-0.000773 0.006909 0
0.000000 -0.000000 0
0.000000 0.000001 0
-0.001201 0.090960 0
-0.004969 0.153550 0
-0.011934 0.187886 0
-0.022565 0.196879 0
-0.036429 0.187117 0
-0.052305 0.166869 0
-0.068979 0.143005 0
-0.085799 0.119399 0
-0.102644 0.097380 0
-0.119631 0.076976 0
-0.136886 0.057853 0
-0.154456 0.039722 0
-0.172293 0.022425 0
-0.190266 0.005919 0
-0.208038 -0.009641 0
-0.225270 -0.024071 0
-0.241748 -0.037366 0
-0.257318 -0.049532 0
-0.271728 -0.060518 0
-0.284664 -0.070223 0
-0.295791 -0.078530 0
-0.304779 -0.085316 0
-0.311332 -0.090478 0
-0.315214 -0.093942 0
-0.316273 -0.095680 0
-0.314443 -0.095717 0
-0.309757 -0.094133 0
-0.302336 -0.091064 0
-0.292373 -0.086689 0
-0.280120 -0.081227 0
-0.265858 -0.074914 0
-0.249893 -0.067997 0
-0.232539 -0.060714 0
-0.214128 -0.053281 0
-0.194975 -0.045904 0
-0.175422 -0.038768 0
-0.155844 -0.031999 0
-0.136574 -0.025698 0
-0.117905 -0.019957 0
-0.100093 -0.014824 0
-0.083366 -0.010289 0
-0.067912 -0.006317 0
-0.053840 -0.002868 0
-0.041195 0.000090 0
-0.029999 0.002555 0
-0.020290 0.004493 0
-0.012166 0.005790 0
-0.005829 0.006116 0
-0.001608 0.004704 0
0.000000 -0.000000 0
0.000000 0.000000 0
-0.000780 0.093052 0
-0.003494 0.158256 0
-0.008982 0.195909 0
-0.018031 0.208421 0
-0.030583 0.201494 0
-0.045638 0.182894 0
-0.061950 0.159688 0
-0.078706 0.136282 0
-0.095654 0.114421 0
-0.112856 0.094287 0
-0.130432 0.075527 0
-0.148443 0.057768 0
-0.166862 0.040767 0
-0.185583 0.024400 0
-0.204429 0.008634 0
-0.223040 -0.006415 0
-0.241025 -0.020540 0
-0.258078 -0.033700 0
-0.274057 -0.045942 0
-0.288691 -0.057226 0
-0.301665 -0.067451 0
-0.312634 -0.076488 0
-0.321263 -0.084192 0
-0.327262 -0.090422 0
-0.330406 -0.095065 0
-0.330564 -0.098046 0
-0.327702 -0.099348 0
-0.321895 -0.099011 0
-0.313310 -0.097141 0
-0.302200 -0.093898 0
-0.288873 -0.089491 0
-0.273672 -0.084153 0
-0.256948 -0.078127 0
-0.239042 -0.071648 0
-0.220270 -0.064930 0
-0.200934 -0.058159 0
-0.181313 -0.051479 0
-0.161653 -0.045007 0
-0.142187 -0.038836 0
-0.123145 -0.033024 0
-0.104740 -0.027592 0
-0.087157 -0.022546 0
-0.070558 -0.017885 0
-0.055096 -0.013599 0
-0.040925 -0.009667 0
-0.028253 -0.006079 0
-0.017336 -0.002889 0
-0.008550 -0.000311 0
-0.002470 0.001080 0
0.000000 -0.000000 0
0.000000 0.000000 0
-0.000421 0.094452 0
-0.002206 0.161752 0
-0.006329 0.202424 0
-0.013808 0.218481 0
-0.024938 0.214724 0
-0.038993 0.198236 0
-0.054762 0.176072 0
-0.071295 0.153103 0
-0.088187 0.131530 0
-0.105415 0.111753 0
-0.123076 0.093440 0
-0.141236 0.076152 0
-0.159884 0.059566 0
-0.178934 0.043486 0
-0.198240 0.027816 0
-0.217596 0.012525 0
-0.236658 -0.002328 0
-0.254996 -0.016501 0
-0.272235 -0.029904 0
-0.288226 -0.042615 0
-0.302726 -0.054587 0
-0.315419 -0.065718 0
-0.325957 -0.075850 0
-0.333999 -0.084799 0
-0.339253 -0.092378 0
-0.341498 -0.098421 0
-0.340610 -0.102802 0
-0.336570 -0.105456 0
-0.329476 -0.106384 0
-0.319532 -0.105664 0
-0.307032 -0.103442 0
-0.292332 -0.099923 0
-0.275824 -0.095344 0
-0.257902 -0.089958 0
-0.238939 -0.084012 0
-0.219273 -0.077725 0
-0.199198 -0.071280 0
-0.178963 -0.064824 0
-0.158784 -0.058464 0
-0.138858 -0.052270 0
-0.119359 -0.046277 0
-0.100450 -0.040499 0
-0.082293 -0.034930 0
-0.065069 -0.029543 0
-0.048988 -0.024287 0
-0.034307 -0.019096 0
-0.021379 -0.013913 0
-0.010724 -0.008750 0
-0.003166 -0.003846 0
0.000000 -0.000000 0
0.000000 -0.000000 0
-0.000126 0.095257 0
-0.001111 0.164164 0
-0.003997 0.207512 0
-0.009962 0.227031 0
-0.019601 0.226679 0
-0.032496 0.212719 0
-0.047544 0.191990 0
-0.063693 0.169707 0
-0.080378 0.148541 0
-0.097466 0.129177 0
-0.115012 0.111348 0
-0.133073 0.094576 0
-0.151649 0.078465 0
-0.170672 0.062756 0
-0.190020 0.047295 0
-0.209524 0.032004 0
-0.228971 0.016861 0
-0.248066 0.001877 0
-0.266329 -0.012712 0
-0.283393 -0.026735 0
-0.299072 -0.040258 0
-0.313159 -0.053258 0
-0.325344 -0.065612 0
-0.335267 -0.077126 0
-0.342581 -0.087565 0
-0.346983 -0.096690 0
-0.348244 -0.104276 0
-0.346236 -0.110145 0
-0.340945 -0.114178 0
-0.332487 -0.116343 0
-0.321091 -0.116691 0
-0.307091 -0.115360 0
-0.290886 -0.112557 0
-0.272913 -0.108533 0
-0.253607 -0.103560 0
-0.233377 -0.097900 0
-0.212581 -0.091789 0
-0.191523 -0.085420 0
-0.170457 -0.078941 0
-0.149590 -0.072449 0
-0.129097 -0.066001 0
-0.109136 -0.059612 0
-0.089863 -0.053265 0
-0.071453 -0.046904 0
-0.054120 -0.040429 0
-0.038145 -0.033688 0
-0.023927 -0.026471 0
-0.012082 -0.018524 0
-0.003588 -0.009644 0
0.000000 -0.000000 0
0.000000 -0.000000 0
0.000116 0.095562 0
-0.000206 0.165625 0
-0.001994 0.211277 0
-0.006530 0.234085 0
-0.014653 0.237259 0
-0.026255 0.226178 0
-0.040404 0.207269 0
-0.056003 0.185938 0
-0.072334 0.165303 0
-0.089133 0.146387 0
-0.106388 0.129046 0
-0.124142 0.112789 0
-0.142395 0.097165 0
-0.161094 0.081857 0
-0.180138 0.066668 0
-0.199390 0.051476 0
-0.218679 0.036215 0
-0.237794 0.020857 0
-0.256498 0.005423 0
-0.274327 -0.009872 0
-0.290892 -0.024821 0
-0.305999 -0.039446 0
-0.319475 -0.053742 0
-0.331001 -0.067561 0
-0.340207 -0.080662 0
-0.346729 -0.092758 0
-0.350245 -0.103550 0
-0.350511 -0.112755 0