# vtk DataFile Version 2.0
generated by CFD-lab course output (written by Tobias Neckel) 
ASCII

DATASET STRUCTURED_GRID
DIMENSIONS  51 51 1 
POINTS 2601 float

0.000000 0.000000 0
0.020000 0.000000 0
0.040000 0.000000 0
0.060000 0.000000 0
0.080000 0.000000 0
0.100000 0.000000 0
0.120000 0.000000 0
0.140000 0.000000 0
0.160000 0.000000 0
0.180000 0.000000 0
0.200000 0.000000 0
0.220000 0.000000 0
0.240000 0.000000 0
0.260000 0.000000 0
0.280000 0.000000 0
0.300000 0.000000 0
0.320000 0.000000 0
0.340000 0.000000 0
0.360000 0.000000 0
0.380000 0.000000 0
0.400000 0.000000 0
0.420000 0.000000 0
0.440000 0.000000 0
0.460000 0.000000 0
0.480000 0.000000 0
0.500000 0.000000 0
0.520000 0.000000 0
0.540000 0.000000 0
0.560000 0.000000 0
0.580000 0.000000 0
0.600000 0.000000 0
0.620000 0.000000 0
0.640000 0.000000 0
0.660000 0.000000 0
0.680000 0.000000 0
0.700000 0.000000 0
0.720000 0.000000 0
0.740000 0.000000 0
0.760000 0.000000 0
0.780000 0.000000 0
0.800000 0.000000 0
0.820000 0.000000 0
0.840000 0.000000 0
0.860000 0.000000 0
0.880000 0.000000 0
0.900000 0.000000 0
0.920000 0.000000 0
0.940000 0.000000 0
0.960000 0.000000 0
0.980000 0.000000 0
1.000000 0.000000 0
0.000000 0.020000 0
0.020000 0.020000 0
0.040000 0.020000 0
0.060000 0.020000 0
0.080000 0.020000 0
0.100000 0.020000 0
0.120000 0.020000 0
0.140000 0.020000 0
0.160000 0.020000 0
0.180000 0.020000 0
0.200000 0.020000 0
0.220000 0.020000 0
0.240000 0.020000 0
0.260000 0.020000 0
0.280000 0.020000 0
0.300000 0.020000 0
0.320000 0.020000 0
0.340000 0.020000 0
0.360000 0.020000 0
0.380000 0.020000 0
0.400000 0.020000 0
0.420000 0.020000 0
0.440000 0.020000 0
0.460000 0.020000 0
0.480000 0.020000 0
0.500000 0.020000 0
0.520000 0.020000 0
0.540000 0.020000 0
0.560000 0.020000 0
0.580000 0.020000 0
0.600000 0.020000 0
0.620000 0.020000 0
0.640000 0.020000 0
0.660000 0.020000 0
0.680000 0.020000 0
0.700000 0.020000 0
0.720000 0.020000 0
0.740000 0.020000 0
0.760000 0.020000 0
0.780000 0.020000 0
0.800000 0.020000 0
0.820000 0.020000 0
0.840000 0.020000 0
0.860000 0.020000 0
0.880000 0.020000 0
0.900000 0.020000 0
0.920000 0.020000 0
0.940000 0.020000 0
0.960000 0.020000 0
0.980000 0.020000 0
1.000000 0.020000 0
0.000000 0.040000 0
0.020000 0.040000 0
0.040000 0.040000 0
0.060000 0.040000 0
0.080000 0.040000 0
0.100000 0.040000 0
0.120000 0.040000 0
0.140000 0.040000 0
0.160000 0.040000 0
0.180000 0.040000 0
0.200000 0.040000 0
0.220000 0.040000 0
0.240000 0.040000 0
0.260000 0.040000 0
0.280000 0.040000 0
0.300000 0.040000 0
0.320000 0.040000 0
0.340000 0.040000 0
0.360000 0.040000 0
0.380000 0.040000 0
0.400000 0.040000 0
0.420000 0.040000 0
0.440000 0.040000 0
0.460000 0.040000 0
0.480000 0.040000 0
0.500000 0.040000 0
0.520000 0.040000 0
0.540000 0.040000 0
0.560000 0.040000 0
0.580000 0.040000 0
0.600000 0.040000 0
0.620000 0.040000 0
0.640000 0.040000 0
0.660000 0.040000 0
0.680000 0.040000 0
0.700000 0.040000 0
0.720000 0.040000 0
0.740000 0.040000 0
0.760000 0.040000 0
0.780000 0.040000 0
0.800000 0.040000 0
0.820000 0.040000 0
0.840000 0.040000 0
0.860000 0.040000 0
0.880000 0.040000 0
0.900000 0.040000 0
0.920000 0.040000 0
0.940000 0.040000 0
0.960000 0.040000 0
0.980000 0.040000 0
1.000000 0.040000 0
0.000000 0.060000 0
0.020000 0.060000 0
0.040000 0.060000 0
0.060000 0.060000 0
0.080000 0.060000 0
0.100000 0.060000 0
0.120000 0.060000 0
0.140000 0.060000 0
0.160000 0.060000 0
0.180000 0.060000 0
0.200000 0.060000 0
0.220000 0.060000 0
0.240000 0.060000 0
0.260000 0.060000 0
0.280000 0.060000 0
0.300000 0.060000 0
0.320000 0.060000 0
0.340000 0.060000 0
0.360000 0.060000 0
0.380000 0.060000 0
0.400000 0.060000 0
0.420000 0.060000 0
0.440000 0.060000 0
0.460000 0.060000 0
0.480000 0.060000 0
0.500000 0.060000 0
0.520000 0.060000 0
0.540000 0.060000 0
0.560000 0.060000 0
0.580000 0.060000 0
0.600000 0.060000 0
0.620000 0.060000 0
0.640000 0.060000 0
0.660000 0.060000 0
0.680000 0.060000 0
0.700000 0.060000 0
0.720000 0.060000 0
0.740000 0.060000 0
0.760000 0.060000 0
0.780000 0.060000 0
0.800000 0.060000 0
0.820000 0.060000 0
0.840000 0.060000 0
0.860000 0.060000 0
0.880000 0.060000 0
0.900000 0.060000 0
0.920000 0.060000 0
0.940000 0.060000 0
0.960000 0.060000 0
0.980000 0.060000 0
1.000000 0.060000 0
0.000000 0.080000 0
0.020000 0.080000 0
0.040000 0.080000 0
0.060000 0.080000 0
0.080000 0.080000 0
0.100000 0.080000 0
0.120000 0.080000 0
0.140000 0.080000 0
0.160000 0.080000 0
0.180000 0.080000 0
0.200000 0.080000 0
0.220000 0.080000 0
0.240000 0.080000 0
0.260000 0.080000 0
0.280000 0.080000 0
0.300000 0.080000 0
0.320000 0.080000 0
0.340000 0.080000 0
0.360000 0.080000 0
0.380000 0.080000 0
0.400000 0.080000 0
0.420000 0.080000 0
0.440000 0.080000 0
0.460000 0.080000 0
0.480000 0.080000 0
0.500000 0.080000 0
0.520000 0.080000 0
0.540000 0.080000 0
0.560000 0.080000 0
0.580000 0.080000 0
0.600000 0.080000 0
0.620000 0.080000 0
0.640000 0.080000 0
0.660000 0.080000 0
0.680000 0.080000 0
0.700000 0.080000 0
0.720000 0.080000 0
0.740000 0.080000 0
0.760000 0.080000 0
0.780000 0.080000 0
0.800000 0.080000 0
0.820000 0.080000 0
0.840000 0.080000 0
0.860000 0.080000 0
0.880000 0.080000 0
0.900000 0.080000 0
0.920000 0.080000 0
0.940000 0.080000 0
0.960000 0.080000 0
0.980000 0.080000 0
1.000000 0.080000 0
0.000000 0.100000 0
0.020000 0.100000 0
0.040000 0.100000 0
0.060000 0.100000 0
0.080000 0.100000 0
0.100000 0.100000 0
0.120000 0.100000 0
0.140000 0.100000 0
0.160000 0.100000 0
0.180000 0.100000 0
0.200000 0.100000 0
0.220000 0.100000 0
0.240000 0.100000 0
0.260000 0.100000 0
0.280000 0.100000 0
0.300000 0.100000 0
0.320000 0.100000 0
0.340000 0.100000 0
0.360000 0.100000 0
0.380000 0.100000 0
0.400000 0.100000 0
0.420000 0.100000 0
0.440000 0.100000 0
0.460000 0.100000 0
0.480000 0.100000 0
0.500000 0.100000 0
0.520000 0.100000 0
0.540000 0.100000 0
0.560000 0.100000 0
0.580000 0.100000 0
0.600000 0.100000 0
0.620000 0.100000 0
0.640000 0.100000 0
0.660000 0.100000 0
0.680000 0.100000 0
0.700000 0.100000 0
0.720000 0.100000 0
0.740000 0.100000 0
0.760000 0.100000 0
0.780000 0.100000 0
0.800000 0.100000 0
0.820000 0.100000 0
0.840000 0.100000 0
0.860000 0.100000 0
0.880000 0.100000 0
0.900000 0.100000 0
0.920000 0.100000 0
0.940000 0.100000 0
0.960000 0.100000 0
0.980000 0.100000 0
1.000000 0.100000 0
0.000000 0.120000 0
0.020000 0.120000 0
0.040000 0.120000 0
0.060000 0.120000 0
0.080000 0.120000 0
0.100000 0.120000 0
0.120000 0.120000 0
0.140000 0.120000 0
0.160000 0.120000 0
0.180000 0.120000 0
0.200000 0.120000 0
0.220000 0.120000 0
0.240000 0.120000 0
0.260000 0.120000 0
0.280000 0.120000 0
0.300000 0.120000 0
0.320000 0.120000 0
0.340000 0.120000 0
0.360000 0.120000 0
0.380000 0.120000 0
0.400000 0.120000 0
0.420000 0.120000 0
0.440000 0.120000 0
0.460000 0.120000 0
0.480000 0.120000 0
0.500000 0.120000 0
0.520000 0.120000 0
0.540000 0.120000 0
0.560000 0.120000 0
0.580000 0.120000 0
0.600000 0.120000 0
0.620000 0.120000 0
0.640000 0.120000 0
0.660000 0.120000 0
0.680000 0.120000 0
0.700000 0.120000 0
0.720000 0.120000 0
0.740000 0.120000 0
0.760000 0.120000 0
0.780000 0.120000 0
0.800000 0.120000 0
0.820000 0.120000 0
0.840000 0.120000 0
0.860000 0.120000 0
0.880000 0.120000 0
0.900000 0.120000 0
0.920000 0.120000 0
0.940000 0.120000 0
0.960000 0.120000 0
0.980000 0.120000 0
1.000000 0.120000 0
0.000000 0.140000 0
0.020000 0.140000 0
0.040000 0.140000 0
0.060000 0.140000 0
0.080000 0.140000 0
0.100000 0.140000 0
0.120000 0.140000 0
0.140000 0.140000 0
0.160000 0.140000 0
0.180000 0.140000 0
0.200000 0.140000 0
0.220000 0.140000 0
0.240000 0.140000 0
0.260000 0.140000 0
0.280000 0.140000 0
0.300000 0.140000 0
0.320000 0.140000 0
0.340000 0.140000 0
0.360000 0.140000 0
0.380000 0.140000 0
0.400000 0.140000 0
0.420000 0.140000 0
0.440000 0.140000 0
0.460000 0.140000 0
0.480000 0.140000 0
0.500000 0.140000 0
0.520000 0.140000 0
0.540000 0.140000 0
0.560000 0.140000 0
0.580000 0.140000 0
0.600000 0.140000 0
0.620000 0.140000 0
0.640000 0.140000 0
0.660000 0.140000 0
0.680000 0.140000 0
0.700000 0.140000 0
0.720000 0.140000 0
0.740000 0.140000 0
0.760000 0.140000 0
0.780000 0.140000 0
0.800000 0.140000 0
0.820000 0.140000 0
0.840000 0.140000 0
0.860000 0.140000 0
0.880000 0.140000 0
0.900000 0.140000 0
0.920000 0.140000 0
0.940000 0.140000 0
0.960000 0.140000 0
0.980000 0.140000 0
1.000000 0.140000 0
0.000000 0.160000 0
0.020000 0.160000 0
0.040000 0.160000 0
0.060000 0.160000 0
0.080000 0.160000 0
0.100000 0.160000 0
0.120000 0.160000 0
0.140000 0.160000 0
0.160000 0.160000 0
0.180000 0.160000 0
0.200000 0.160000 0
0.220000 0.160000 0
0.240000 0.160000 0
0.260000 0.160000 0
0.280000 0.160000 0
0.300000 0.160000 0
0.320000 0.160000 0
0.340000 0.160000 0
0.360000 0.160000 0
0.380000 0.160000 0
0.400000 0.160000 0
0.420000 0.160000 0
0.440000 0.160000 0
0.460000 0.160000 0
0.480000 0.160000 0
0.500000 0.160000 0
0.520000 0.160000 0
0.540000 0.160000 0
0.560000 0.160000 0
0.580000 0.160000 0
0.600000 0.160000 0
0.620000 0.160000 0
0.640000 0.160000 0
0.660000 0.160000 0
0.680000 0.160000 0
0.700000 0.160000 0
0.720000 0.160000 0
0.740000 0.160000 0
0.760000 0.160000 0
0.780000 0.160000 0
0.800000 0.160000 0
0.820000 0.160000 0
0.840000 0.160000 0
0.860000 0.160000 0
0.880000 0.160000 0
0.900000 0.160000 0
0.920000 0.160000 0
0.940000 0.160000 0
0.960000 0.160000 0
0.980000 0.160000 0
1.000000 0.160000 0
0.000000 0.180000 0
0.020000 0.180000 0
0.040000 0.180000 0
0.060000 0.180000 0
0.080000 0.180000 0
0.100000 0.180000 0
0.120000 0.180000 0
0.140000 0.180000 0
0.160000 0.180000 0
0.180000 0.180000 0
0.200000 0.180000 0
0.220000 0.180000 0
0.240000 0.180000 0
0.260000 0.180000 0
0.280000 0.180000 0
0.300000 0.180000 0
0.320000 0.180000 0
0.340000 0.180000 0
0.360000 0.180000 0
0.380000 0.180000 0
0.400000 0.180000 0
0.420000 0.180000 0
0.440000 0.180000 0
0.460000 0.180000 0
0.480000 0.180000 0
0.500000 0.180000 0
0.520000 0.180000 0
0.540000 0.180000 0
0.560000 0.180000 0
0.580000 0.180000 0
0.600000 0.180000 0
0.620000 0.180000 0
[...]
POINT_DATA 2601 

VECTORS velocity float
0.000000 0.000000 0
0.000001 0.000000 0
0.000000 0.000000 0
-0.000001 0.000000 0
-0.000001 0.000000 0
-0.000001 0.000000 0
-0.000001 0.000000 0
-0.000000 0.000000 0
-0.000000 0.000000 0
-0.000001 0.000000 0
-0.000001 0.000000 0
-0.000001 0.000000 0
-0.000001 0.000000 0
-0.000001 0.000000 0
-0.000001 0.000000 0
-0.000001 0.000000 0
-0.000001 0.000000 0
-0.000001 0.000000 0
-0.000001 0.000000 0
-0.000001 0.000000 0
-0.000000 0.000000 0
-0.000000 0.000000 0
0.000000 0.000000 0
0.000000 0.000000 0
0.000000 0.000000 0
0.000000 0.000000 0
0.000001 0.000000 0
0.000001 0.000000 0
0.000001 0.000000 0
0.000001 0.000000 0
0.000001 0.000000 0
0.000001 0.000000 0
0.000001 0.000000 0
0.000000 0.000000 0
0.000000 0.000000 0
0.000000 0.000000 0
0.000000 0.000000 0
0.000000 0.000000 0
0.000000 0.000000 0
0.000000 0.000000 0
0.000000 0.000000 0
0.000000 0.000000 0
0.000000 0.000000 0
0.000000 0.000000 0
0.000000 0.000000 0
0.000000 0.000000 0
0.000000 0.000000 0
0.000000 0.000000 0
0.000000 0.000000 0
-0.000000 0.000000 0
0.000000 0.000000 0
0.000000 0.000001 0
-0.001834 0.001954 0
-0.007245 0.003893 0
-0.014351 0.004391 0
-0.021053 0.003604 0
-0.026023 0.002180 0
-0.028771 0.000624 0
-0.029257 -0.000879 0
-0.027563 -0.002321 0
-0.023754 -0.003708 0
-0.017905 -0.005018 0
-0.010133 -0.006176 0
-0.000645 -0.007048 0
0.010218 -0.007576 0
0.021901 -0.007723 0
0.033843 -0.007431 0
0.045440 -0.006707 0
0.056037 -0.005609 0
0.065076 -0.004240 0
0.072078 -0.002724 0
0.076748 -0.001208 0
0.079000 0.000182 0
0.078948 0.001397 0
0.076883 0.002421 0
0.073158 0.003234 0
0.068140 0.003834 0
0.062198 0.004221 0
0.055693 0.004399 0
0.048966 0.004381 0
0.042322 0.004190 0
0.036013 0.003860 0
0.030233 0.003435 0
0.025104 0.002959 0
0.020682 0.002476 0
0.016968 0.002019 0
0.013914 0.001611 0
0.011444 0.001266 0
0.009464 0.000988 0
0.007878 0.000776 0
0.006593 0.000622 0
0.005525 0.000517 0
0.004606 0.000452 0
0.003782 0.000415 0
0.003017 0.000394 0
0.002295 0.000376 0
0.001619 0.000348 0
0.001013 0.000298 0
0.000514 0.000218 0
0.000168 0.000110 0
0.000005 0.000006 0
0.000000 0.000000 0
0.000000 0.000000 0
-0.003803 0.007246 0
-0.012815 0.012514 0
-0.024112 0.013806 0
-0.034887 0.011671 0
-0.043354 0.007718 0
-0.048771 0.003234 0
-0.050994 -0.001207 0
-0.050124 -0.005502 0
-0.046271 -0.009658 0
-0.039549 -0.013621 0
-0.030103 -0.017260 0
-0.018126 -0.020351 0
-0.003878 -0.022546 0
0.012173 -0.023626 0
0.029422 -0.023540 0
0.047079 -0.022194 0
0.064316 -0.019637 0
0.080292 -0.016042 0
0.094077 -0.011672 0
0.104904 -0.006922 0
0.112195 -0.002200 0
0.115655 0.002117 0
0.115405 0.005790 0
0.111985 0.008743 0
0.106040 0.010960 0
0.098235 0.012447 0
0.089214 0.013231 0
0.079567 0.013372 0
0.069808 0.012953 0
0.060362 0.012089 0
0.051547 0.010910 0
0.043578 0.009550 0
0.036572 0.008135 0
0.030559 0.006768 0
0.025498 0.005525 0
0.021301 0.004450 0
0.017848 0.003565 0
0.015008 0.002871 0
0.012650 0.002353 0
0.010652 0.001987 0
0.008911 0.001744 0
0.007347 0.001589 0
0.005905 0.001487 0
0.004557 0.001398 0
0.003304 0.001282 0
0.002178 0.001105 0
0.001231 0.000844 0
0.000526 0.000509 0
0.000114 0.000168 0
0.000000 0.000000 0
0.000000 -0.000000 0
-0.005009 0.014766 0
-0.016310 0.024201 0
-0.030276 0.026464 0
-0.043791 0.022847 0
-0.054938 0.016066 0
-0.062912 0.008265 0
-0.067538 0.000474 0
-0.068910 -0.007043 0
-0.067223 -0.014282 0
-0.062637 -0.021186 0
-0.055299 -0.027599 0
-0.045361 -0.033273 0
-0.032980 -0.037877 0
-0.018272 -0.041024 0
-0.001532 -0.042337 0
0.016818 -0.041601 0
0.036229 -0.038822 0
0.055824 -0.034001 0
0.074616 -0.027336 0
0.091585 -0.019326 0
0.105611 -0.010569 0
0.115682 -0.001813 0
0.121202 0.006091 0
0.122034 0.012599 0
0.118930 0.017585 0
0.112802 0.021047 0
0.104556 0.023067 0
0.095008 0.023786 0
0.084869 0.023395 0
0.074711 0.022122 0
0.064968 0.020218 0
0.055943 0.017933 0
0.047820 0.015495 0
0.040680 0.013093 0
0.034522 0.010869 0
0.029282 0.008916 0
0.024859 0.007281 0
0.021125 0.005974 0
0.017950 0.004978 0
0.015206 0.004256 0
0.012784 0.003757 0
0.010595 0.003421 0
0.008575 0.003185 0
0.006692 0.002977 0
0.004942 0.002727 0
0.003357 0.002372 0
0.001993 0.001870 0
0.000928 0.001227 0
0.000242 0.000532 0
0.000000 0.000000 0
0.000000 -0.000001 0
-0.005572 0.023553 0
-0.018121 0.037781 0
-0.033720 0.041289 0
-0.049135 0.036335 0
-0.062402 0.026839 0
-0.072707 0.015834 0
-0.079882 0.004791 0
-0.084011 -0.005816 0
-0.085321 -0.015930 0
-0.084016 -0.025545 0
-0.080239 -0.034537 0
-0.074098 -0.042670 0
-0.065675 -0.049636 0
-0.055019 -0.055075 0
-0.042148 -0.058629 0
-0.027077 -0.059955 0
-0.009970 -0.058644 0
0.008771 -0.054429 0
0.028678 -0.047434 0
0.048883 -0.037918 0
0.068124 -0.026297 0
0.085054 -0.013474 0
0.098432 -0.000562 0
0.107012 0.011015 0
0.110194 0.020191 0
0.108974 0.026820 0
0.104433 0.031026 0
0.097592 0.033059 0
0.089364 0.033250 0
0.080485 0.031989 0
0.071517 0.029677 0
0.062868 0.026698 0
0.054811 0.023399 0
0.047503 0.020067 0
0.041008 0.016922 0
0.035319 0.014113 0
0.030376 0.011722 0
0.026090 0.009780 0
0.022355 0.008272 0
0.019063 0.007152 0
0.016114 0.006355 0
0.013425 0.005799 0
0.010936 0.005390 0
0.008610 0.005031 0
0.006443 0.004617 0
0.004460 0.004054 0
0.002721 0.003273 0
0.001318 0.002260 0
0.000366 0.001097 0
0.000000 0.000000 0
0.000000 -0.000001 0
-0.005689 0.032885 0
-0.018678 0.052350 0
-0.035104 0.057479 0
-0.051770 0.051530 0
-0.066680 0.039638 0
-0.078989 0.025745 0
-0.088523 0.011779 0
-0.095369 -0.001604 0
-0.099683 -0.014278 0
-0.101695 -0.026269 0
-0.101563 -0.037518 0
-0.099375 -0.047837 0
-0.095172 -0.056956 0
-0.088957 -0.064551 0
-0.080700 -0.070279 0
-0.070365 -0.073780 0
-0.057914 -0.074670 0
-0.043246 -0.072649 0
-0.026379 -0.067448 0
-0.007656 -0.058772 0
0.012358 -0.046740 0
0.032829 -0.032122 0
0.052356 -0.015868 0
0.069148 0.000838 0
0.081297 0.015622 0
0.087834 0.026808 0
0.089694 0.034450 0
0.087989 0.038855 0
0.083820 0.040501 0
0.078067 0.039969 0
0.071434 0.037836 0
0.064466 0.034639 0
0.057553 0.030859 0
0.050953 0.026896 0
0.044823 0.023054 0
0.039239 0.019548 0
0.034214 0.016509 0
0.029716 0.013995 0
0.025687 0.012006 0
0.022056 0.010497 0
0.018751 0.009394 0
0.015706 0.008599 0
0.012870 0.007999 0
0.010211 0.007469 0
0.007721 0.006877 0
0.005420 0.006093 0
0.003369 0.005012 0
0.001671 0.003582 0
0.000480 0.001849 0
0.000000 0.000000 0
0.000000 -0.000001 0
-0.005503 0.042230 0
-0.018317 0.067198 0
-0.034922 0.074382 0
-0.052288 0.067912 0
-0.068403 0.054058 0
-0.082343 0.037676 0
-0.093896 0.021171 0
-0.103130 0.005343 0
-0.110155 -0.009605 0
-0.115135 -0.023665 0
-0.118263 -0.036856 0
-0.119632 -0.049062 0
-0.119275 -0.060054 0
-0.117185 -0.069546 0
-0.113320 -0.077221 0
-0.107615 -0.082741 0
-0.099972 -0.085763 0
-0.090252 -0.085964 0
-0.078352 -0.083024 0
-0.064145 -0.076654 0
-0.047486 -0.066782 0
-0.028531 -0.053473 0
-0.008010 -0.036881 0
0.012998 -0.017926 0
0.033036 0.001505 0
0.049385 0.018423 0
0.059884 0.030871 0
0.065580 0.038932 0
0.067586 0.043172 0
0.066807 0.044376 0
0.064089 0.043278 0
0.060135 0.040579 0
0.055473 0.036912 0
0.050490 0.032797 0
0.045464 0.028636 0
0.040583 0.024722 0
0.035955 0.021246 0
0.031630 0.018307 0
0.027618 0.015931 0
0.023902 0.014089 0
0.020452 0.012705 0
0.017232 0.011679 0
0.014208 0.010885 0
0.011356 0.010180 0
0.008669 0.009408 0
0.006162 0.008406 0
0.003891 0.007022 0
0.001969 0.005149 0
0.000581 0.002767 0
0.000000 0.000000 0
0.000000 -0.000000 0
-0.005114 0.051202 0
-0.017300 0.081771 0
-0.033557 0.091451 0
-0.051147 0.085012 0
-0.068056 0.069693 0
-0.083251 0.051237 0
-0.096442 0.032565 0
-0.107672 0.014655 0
-0.117048 -0.002274 0
-0.124631 -0.018162 0
-0.130595 -0.033020 0
-0.135076 -0.046824 0
-0.138112 -0.059402 0
-0.139694 -0.070506 0
-0.139778 -0.079849 0
-0.138287 -0.087127 0
-0.135113 -0.092033 0
-0.130109 -0.094270 0
-0.123104 -0.093555 0
-0.113869 -0.089638 0
-0.102142 -0.082354 0
-0.087773 -0.071598 0
-0.070664 -0.057397 0
-0.050820 -0.040208 0
-0.028893 -0.020765 0
-0.006444 -0.000040 0
0.013520 0.018255 0
0.028720 0.031153 0
0.038963 0.039274 0
0.045034 0.043467 0
0.047918 0.044508 0
0.048452 0.043255 0
0.047289 0.040505 0
0.044969 0.036905 0
0.041919 0.032961 0
0.038463 0.029057 0
0.034829 0.025462 0
0.031171 0.022332 0
0.027585 0.019733 0
0.024128 0.017663 0
0.020824 0.016065 0
0.017679 0.014844 0
0.014688 0.013875 0
0.011841 0.013008 0
0.009133 0.012071 0
0.006579 0.010871 0
0.004225 0.009205 0
0.002184 0.006892 0
0.000664 0.003818 0
0.000000 0.000000 0
0.000000 0.000000 0
-0.004597 0.059530 0
-0.015832 0.095642 0
-0.031323 0.108229 0
-0.048719 0.102411 0
-0.066048 0.086163 0
-0.082148 0.066061 0
-0.096621 0.045591 0
-0.109477 0.025948 0
-0.120820 0.007353 0
-0.130709 -0.010117 0
-0.139180 -0.026411 0
-0.146402 -0.041546 0
-0.152441 -0.055436 0
-0.157288 -0.067880 0
-0.160891 -0.078627 0
-0.163162 -0.087406 0
-0.163982 -0.093941 0
-0.163199 -0.097974 0
-0.160627 -0.099265 0
-0.156034 -0.097616 0
-0.149144 -0.092878 0
-0.139667 -0.084952 0
-0.127277 -0.073834 0
-0.111690 -0.059697 0
-0.092926 -0.042871 0
-0.071226 -0.023989 0
-0.047197 -0.004293 0
-0.024139 0.013489 0
-0.004757 0.026858 0
0.009876 0.035421 0
0.020269 0.039860 0
0.026998 0.041208 0
0.030821 0.040394 0
0.032460 0.038167 0
0.032498 0.035143 0
0.031419 0.031812 0
0.029585 0.028538 0
0.027274 0.025551 0
0.024693 0.022975 0
0.021988 0.020850 0
0.019255 0.019154 0
0.016553 0.017815 0
0.013916 0.016723 0
0.011358 0.015734 0
0.008886 0.014670 0
0.006510 0.013314 0
0.004270 0.011417 0
0.002267 0.008710 0
0.000715 0.004951 0
0.000000 0.000000 0
0.000000 0.000001 0
-0.004008 0.067035 0
-0.014081 0.108498 0
-0.028483 0.124337 0
-0.045323 0.119737 0
-0.062732 0.103121 0
-0.079418 0.081809 0
-0.094853 0.059894 0
-0.108998 0.038854 0
-0.121963 0.018958 0
-0.133837 0.000198 0
-0.144589 -0.017327 0
-0.154261 -0.033564 0
-0.162976 -0.048517 0
-0.170736 -0.062056 0
-0.177479 -0.073975 0
-0.183099 -0.084036 0
-0.187458 -0.091996 0
-0.190385 -0.097625 0
-0.191687 -0.100720 0
-0.191138 -0.101122 0
-0.188480 -0.098721 0
-0.183424 -0.093466 0
-0.175639 -0.085375 0
-0.164783 -0.074560 0
-0.150583 -0.061229 0
-0.132841 -0.045769 0
-0.111641 -0.028833 0
-0.087644 -0.011287 0
-0.063163 0.005259 0
-0.040643 0.018441 0
-0.021982 0.027385 0
-0.007654 0.032703 0
0.002832 0.035043 0
0.010073 0.035228 0
0.014689 0.034002 0
0.017274 0.031971 0
0.018355 0.029607 0
0.018359 0.027223 0
0.017620 0.025019 0
0.016391 0.023101 0
0.014854 0.021500 0
0.013137 0.020182 0
0.011325 0.019070 0
0.009470 0.018039 0
0.007597 0.016920 0
0.005724 0.015487 0
0.003878 0.013448 0
0.002141 0.010447 0
0.000713 0.006085 0
0.000000 0.000000 0
0.000000 0.000001 0
-0.003392 0.073612 0
-0.012180 0.120117 0
-0.025258 0.139471 0
-0.041237 0.136660 0
-0.058416 0.120256 0
-0.075403 0.098182 0
-0.091521 0.075171 0
-0.106658 0.053057 0
-0.120927 0.032192 0
-0.134437 0.012509 0
-0.147208 -0.005987 0
-0.159121 -0.023159 0
-0.170236 -0.038961 0
-0.180594 -0.053377 0
-0.190135 -0.066264 0
-0.198733 -0.077427 0
-0.206225 -0.086655 0
-0.212414 -0.093744 0
-0.217081 -0.098513 0
-0.219993 -0.100824 0
-0.220903 -0.100591 0
-0.219551 -0.097793 0
-0.215663 -0.092475 0
-0.208955 -0.084753 0
-0.199154 -0.074813 0
-0.186013 -0.062932 0
-0.169415 -0.049490 0
-0.149487 -0.034989 0
-0.126646 -0.020143 0
-0.102225 -0.005759 0
-0.078524 0.006870 0
-0.057178 0.016394 0
-0.039334 0.022668 0
-0.025271 0.026310 0
-0.014600 0.027942 0
-0.006802 0.028145 0
-0.001335 0.027452 0
0.002309 0.026287 0
0.004585 0.024943 0
0.005862 0.023616 0
0.006417 0.022408 0
0.006460 0.021344 0
0.006148 0.020390 0
0.005584 0.019462 0
0.004826 0.018416 0
0.003905 0.017034 0
0.002844 0.015000 0
0.001696 0.011875 0
0.000619 0.007093 0
0.000000 0.000000 0
0.000000 0.000001 0
-0.002781 0.079216 0
-0.010240 0.130364 0
-0.021838 0.153394 0
-0.036703 0.152894 0
-0.053374 0.137286 0
-0.070403 0.114913 0
-0.086955 0.091149 0
-0.102819 0.068260 0
-0.118091 0.046737 0
-0.132908 0.026480 0
-0.147330 0.007357 0
-0.161275 -0.010536 0
-0.174567 -0.027044 0
-0.187237 -0.042157 0
-0.199250 -0.055836 0
-0.210478 -0.067946 0
-0.220735 -0.078316 0
-0.229796 -0.086769 0
-0.237410 -0.093141 0
-0.243316 -0.097300 0
-0.247254 -0.099163 0
-0.248977 -0.098705 0
-0.248253 -0.095971 0
-0.244869 -0.091069 0
-0.238640 -0.084171 0
-0.229408 -0.075508 0
-0.217077 -0.065359 0
-0.201645 -0.054056 0
-0.183257 -0.042002 0
-0.162337 -0.029682 0
-0.139525 -0.017661 0
-0.116201 -0.006487 0
-0.093981 0.003135 0
-0.073963 0.010494 0
-0.056819 0.015533 0
-0.042780 0.018705 0
-0.031645 0.020495 0
-0.022976 0.021304 0
-0.016317 0.021467 0
-0.011258 0.021270 0
-0.007457 0.020901 0
-0.004626 0.020451 0
-0.002531 0.019946 0
-0.001010 0.019361 0
0.000041 0.018598 0
0.000675 0.017469 0
0.000918 0.015658 0
0.000792 0.012672 0
0.000386 0.007781 0
0.000000 0.000000 0
0.000000 0.000001 0
-0.002200 0.083852 0
-0.008343 0.139173 0
-0.018377 0.165934 0
-0.031930 0.168195 0
-0.047846 0.153956 0
-0.064681 0.131763 0
-0.081445 0.107586 0
-0.097802 0.084193 0
-0.113808 0.062282 0
-0.129612 0.041748 0
-0.145308 0.022380 0
-0.160892 0.004078 0
-0.176164 -0.012999 0
-0.190901 -0.028694 0
-0.205081 -0.043023 0
-0.218599 -0.055942 0
-0.231267 -0.067338 0
-0.242844 -0.077070 0
-0.253051 -0.084994 0
-0.261591 -0.090979 0
-0.268178 -0.094930 0
-0.272545 -0.096795 0
-0.274466 -0.096583 0
-0.273763 -0.094366 0
-0.270313 -0.090275 0
-0.264049 -0.084495 0
-0.254959 -0.077253 0
-0.243087 -0.068809 0
-0.228547 -0.059451 0
-0.211553 -0.049491 0
-0.192447 -0.039266 0
-0.171746 -0.029151 0
-0.150067 -0.019570 0
-0.128358 -0.010852 0
-0.107701 -0.003241 0
-0.088839 0.002971 0
-0.072174 0.007648 0
-0.057848 0.010959 0
-0.045819 0.013225 0
-0.035890 0.014756 0
-0.027722 0.015776 0
-0.021005 0.016417 0
-0.015474 0.016774 0
-0.010933 0.016891 0
-0.007244 0.016732 0
-0.004324 0.016156 0
-0.002141 0.014883 0
-0.000710 0.012408 0
-0.000040 0.007884 0
0.000000 0.000000 0
0.000000 0.000001 0
-0.001664 0.087560 0
-0.006551 0.146541 0
-0.015003 0.176981 0
-0.027102 0.182362 0
-0.042044 0.170036 0
-0.058464 0.148512 0
-0.075241 0.124270 0
-0.091888 0.100623 0
-0.108390 0.078548 0
-0.124893 0.057980 0
-0.141514 0.038637 0
-0.158274 0.020320 0
-0.175098 0.002965 0
-0.191693 -0.013241 0
-0.207783 -0.028138 0
-0.223270 -0.041759 0
-0.238002 -0.054070 0
-0.251746 -0.064986 0
-0.264214 -0.074394 0
-0.275089 -0.082173 0
-0.284048 -0.088210 0
-0.290794 -0.092418 0
-0.295072 -0.094753 0
-0.296694 -0.095221 0
-0.295545 -0.093885 0
-0.291589 -0.090863 0
-0.284867 -0.086321 0
-0.275487 -0.080467 0
-0.263611 -0.073537 0
-0.249450 -0.065782 0
-0.233262 -0.057468 0
-0.215356 -0.048867 0
-0.196120 -0.040253 0
-0.176048 -0.031872 0
-0.155631 -0.023986 0
-0.135398 -0.016821 0
-0.115953 -0.010495 0
-0.097830 -0.005051 0
-0.081353 -0.000492 0
-0.066635 0.003173 0
-0.053662 0.006016 0
-0.042345 0.008202 0
-0.032573 0.009875 0
-0.024205 0.011132 0
-0.017105 0.011989 0
-0.011181 0.012366 0
-0.006411 0.012044 0
-0.002867 0.010571 0
-0.000688 0.007071 0
0.000000 -0.000000 0
0.000000 0.000001 0
-0.001183 0.090404 0
-0.004907 0.152513 0
-0.011812 0.186485 0
-0.022370 0.195236 0
-0.036154 0.185317 0
-0.051952 0.164959 0
-0.068554 0.141011 0
-0.085311 0.117343 0
-0.102104 0.095288 0
-0.119053 0.074872 0
-0.136282 0.055761 0
-0.153838 0.037663 0
-0.171671 0.020420 0
-0.189643 0.003991 0
-0.207395 -0.011446 0
-0.224599 -0.025723 0
-0.241067 -0.038862 0
-0.256628 -0.050857 0
-0.271022 -0.061651 0
-0.283933 -0.071146 0
-0.295022 -0.079224 0
-0.303959 -0.085770 0
-0.310447 -0.090682 0
-0.314253 -0.093893 0
-0.315222 -0.095380 0
-0.313294 -0.095172 0
-0.308500 -0.093355 0
-0.300960 -0.090065 0
-0.290867 -0.085488 0
-0.278467 -0.079840 0
-0.264043 -0.073360 0
-0.247898 -0.066293 0
-0.230351 -0.058879 0
-0.211735 -0.051341 0
-0.192386 -0.043891 0
-0.172679 -0.036707 0
-0.152997 -0.029919 0
-0.133685 -0.023642 0
-0.115044 -0.017970 0
-0.097330 -0.012934 0
-0.080805 -0.008514 0
-0.065629 -0.004672 0
-0.051888 -0.001366 0
-0.039595 0.001423 0
-0.028755 0.003707 0
-0.019390 0.005462 0
-0.011589 0.006569 0
-0.005529 0.006684 0
-0.001514 0.005018 0
0.000000 -0.000000 0
0.000000 0.000000 0
-0.000763 0.092467 0
-0.003438 0.157170 0
-0.008874 0.194444 0
-0.017858 0.206703 0
-0.030335 0.199617 0
-0.045317 0.180912 0
-0.061562 0.157630 0
-0.078263 0.134174 0
-0.095169 0.112290 0
-0.112343 0.092158 0
-0.129906 0.073423 0
-0.147918 0.055708 0
-0.166350 0.038770 0
-0.185092 0.022484 0
-0.203961 0.006818 0
-0.222572 -0.008087 0
-0.240546 -0.022042 0
-0.257599 -0.035031 0
-0.273574 -0.047088 0
-0.288199 -0.058173 0
-0.301150 -0.068184 0
-0.312082 -0.076993 0
-0.320661 -0.084459 0
-0.326598 -0.090445 0
-0.329672 -0.094843 0
-0.329755 -0.097585 0
-0.326818 -0.098655 0
-0.320935 -0.098100 0
-0.312278 -0.096029 0
-0.301097 -0.092606 0
-0.287702 -0.088038 0
-0.272430 -0.082560 0
-0.255632 -0.076415 0
-0.237646 -0.069837 0
-0.218794 -0.063042 0
-0.199383 -0.056210 0
-0.179693 -0.049490 0
-0.159979 -0.043004 0
-0.140489 -0.036846 0
-0.121468 -0.031066 0
-0.103126 -0.025685 0
-0.085651 -0.020716 0
-0.069198 -0.016159 0
-0.053915 -0.012001 0
-0.039963 -0.008217 0
-0.027531 -0.004800 0
-0.016859 -0.001817 0
-0.008296 0.000496 0
-0.002388 0.001543 0
0.000000 -0.000000 0
0.000000 0.000000 0
-0.000405 0.093842 0
-0.002158 0.160624 0
-0.006235 0.200903 0
-0.013657 0.216696 0
-0.024720 0.212777 0
-0.038708 0.196187 0
-0.054417 0.173957 0
-0.070902 0.150950 0
-0.087759 0.129368 0
-0.104969 0.109609 0
-0.122628 0.091336 0
-0.140801 0.074106 0
-0.159475 0.057594 0
-0.178563 0.041603 0
-0.197912 0.026035 0
-0.217313 0.010862 0
-0.236396 -0.003835 0
-0.254739 -0.017829 0
-0.271979 -0.031050 0
-0.287974 -0.043570 0
-0.302467 -0.055342 0
-0.315140 -0.066259 0
-0.325642 -0.076166 0
-0.333636 -0.084882 0
-0.338832 -0.092222 0
-0.341014 -0.098027 0
-0.340060 -0.102175 0
-0.335959 -0.104605 0
-0.328810 -0.105325 0
-0.318820 -0.104416 0
-0.306284 -0.102027 0
-0.291558 -0.098363 0
-0.275031 -0.093663 0
-0.257095 -0.088179 0
-0.238120 -0.082155 0
-0.218445 -0.075808 0
-0.198360 -0.069323 0
-0.178116 -0.062845 0
-0.157936 -0.056481 0
-0.138021 -0.050297 0
-0.118544 -0.044331 0
-0.099674 -0.038600 0
-0.081576 -0.033103 0
-0.064436 -0.027811 0
-0.048460 -0.022676 0
-0.033901 -0.017642 0
-0.021101 -0.012667 0
-0.010572 -0.007787 0
-0.003117 -0.003278 0
0.000000 -0.000000 0
0.000000 0.000000 0
-0.000112 0.094625 0
-0.001069 0.163000 0
-0.003918 0.205943 0
-0.009834 0.225188 0
-0.019416 0.224668 0
-0.032252 0.210609 0
-0.047246 0.189824 0
-0.063354 0.167516 0
-0.080012 0.146357 0
-0.097089 0.127027 0
-0.114641 0.109255 0
-0.132725 0.092556 0
-0.151338 0.076531 0
-0.170410 0.060920 0
-0.189816 0.045569 0
-0.209381 0.030398 0
-0.228890 0.015384 0
-0.248021 0.000553 0
-0.266310 -0.013853 0
-0.283383 -0.027685 0
-0.299070 -0.041018 0
-0.313155 -0.053819 0
-0.325322 -0.065962 0
-0.335213 -0.077255 0
-0.342481 -0.087465 0
-0.346828 -0.096356 0
-0.348028 -0.103710 0
-0.345958 -0.109351 0
-0.340611 -0.113168 0
-0.332104 -0.115132 0
-0.320672 -0.115300 0
-0.306648 -0.113813 0
-0.290432 -0.110878 0
-0.272459 -0.106747 0
-0.253163 -0.101691 0
-0.232947 -0.095971 0
-0.212169 -0.089819 0
-0.191131 -0.083427 0
-0.170085 -0.076942 0
-0.149239 -0.070458 0
-0.128767 -0.064032 0
-0.108829 -0.057684 0
-0.089583 -0.051397 0
-0.071209 -0.045118 0
-0.053918 -0.038752 0
-0.037990 -0.032159 0
-0.023823 -0.025146 0
-0.012027 -0.017489 0
-0.003573 -0.009029 0
0.000000 -0.000001 0
0.000000 0.000001 0
0.000128 0.094911 0
-0.000172 0.164430 0
-0.001930 0.209668 0
-0.006428 0.232194 0
-0.014504 0.235195 0
-0.026055 0.224017 0
-0.040158 0.205059 0
-0.055723 0.183716 0
-0.072034 0.163104 0
-0.088829 0.144238 0
-0.106097 0.126971 0
-0.123880 0.110804 0
-0.142179 0.095279 0
-0.160935 0.080080 0
-0.180046 0.065006 0
-0.199371 0.049936 0
-0.218734 0.034805 0
-0.237925 0.019591 0
-0.256691 0.004311 0
-0.274556 -0.010809 0
-0.291143 -0.025569 0
-0.306267 -0.040007 0
-0.319745 -0.054109 0
-0.331257 -0.067722 0
-0.340432 -0.080607 0
-0.346908 -0.092480 0
-0.350368 -0.103044 0
-0.350570 -0.112022 0
-0.347379 -0.119179 0