# vtk DataFile Version 2.0
generated by CFD-lab course output (written by Tobias Neckel) 
ASCII

DATASET STRUCTURED_GRID
DIMENSIONS  51 51 1 
POINTS 2601 float

0.000000 0.000000 0
0.020000 0.000000 0
0.040000 0.000000 0
0.060000 0.000000 0
0.080000 0.000000 0
0.100000 0.000000 0
0.120000 0.000000 0
0.140000 0.000000 0
0.160000 0.000000 0
0.180000 0.000000 0
0.200000 0.000000 0
0.220000 0.000000 0
0.240000 0.000000 0
0.260000 0.000000 0
0.280000 0.000000 0
0.300000 0.000000 0
0.320000 0.000000 0
0.340000 0.000000 0
0.360000 0.000000 0
0.380000 0.000000 0
0.400000 0.000000 0
0.420000 0.000000 0
0.440000 0.000000 0
0.460000 0.000000 0
0.480000 0.000000 0
0.500000 0.000000 0
0.520000 0.000000 0
0.540000 0.000000 0
0.560000 0.000000 0
0.580000 0.000000 0
0.600000 0.000000 0
0.620000 0.000000 0
0.640000 0.000000 0
0.660000 0.000000 0
0.680000 0.000000 0
0.700000 0.000000 0
0.720000 0.000000 0
0.740000 0.000000 0
0.760000 0.000000 0
0.780000 0.000000 0
0.800000 0.000000 0
0.820000 0.000000 0
0.840000 0.000000 0
0.860000 0.000000 0
0.880000 0.000000 0
0.900000 0.000000 0
0.920000 0.000000 0
0.940000 0.000000 0
0.960000 0.000000 0
0.980000 0.000000 0
1.000000 0.000000 0
0.000000 0.020000 0
0.020000 0.020000 0
0.040000 0.020000 0
0.060000 0.020000 0
0.080000 0.020000 0
0.100000 0.020000 0
0.120000 0.020000 0
0.140000 0.020000 0
0.160000 0.020000 0
0.180000 0.020000 0
0.200000 0.020000 0
0.220000 0.020000 0
0.240000 0.020000 0
0.260000 0.020000 0
0.280000 0.020000 0
0.300000 0.020000 0
0.320000 0.020000 0
0.340000 0.020000 0
0.360000 0.020000 0
0.380000 0.020000 0
0.400000 0.020000 0
0.420000 0.020000 0
0.440000 0.020000 0
0.460000 0.020000 0
0.480000 0.020000 0
0.500000 0.020000 0
0.520000 0.020000 0
0.540000 0.020000 0
0.560000 0.020000 0
0.580000 0.020000 0
0.600000 0.020000 0
0.620000 0.020000 0
0.640000 0.020000 0
0.660000 0.020000 0
0.680000 0.020000 0
0.700000 0.020000 0
0.720000 0.020000 0
0.740000 0.020000 0
0.760000 0.020000 0
0.780000 0.020000 0
0.800000 0.020000 0
0.820000 0.020000 0
0.840000 0.020000 0
0.860000 0.020000 0
0.880000 0.020000 0
0.900000 0.020000 0
0.920000 0.020000 0
0.940000 0.020000 0
0.960000 0.020000 0
0.980000 0.020000 0
1.000000 0.020000 0
0.000000 0.040000 0
0.020000 0.040000 0
0.040000 0.040000 0
0.060000 0.040000 0
0.080000 0.040000 0
0.100000 0.040000 0
0.120000 0.040000 0
0.140000 0.040000 0
0.160000 0.040000 0
0.180000 0.040000 0
0.200000 0.040000 0
0.220000 0.040000 0
0.240000 0.040000 0
0.260000 0.040000 0
0.280000 0.040000 0
0.300000 0.040000 0
0.320000 0.040000 0
0.340000 0.040000 0
0.360000 0.040000 0
0.380000 0.040000 0
0.400000 0.040000 0
0.420000 0.040000 0
0.440000 0.040000 0
0.460000 0.040000 0
0.480000 0.040000 0
0.500000 0.040000 0
0.520000 0.040000 0
0.540000 0.040000 0
0.560000 0.040000 0
0.580000 0.040000 0
0.600000 0.040000 0
0.620000 0.040000 0
0.640000 0.040000 0
0.660000 0.040000 0
0.680000 0.040000 0
0.700000 0.040000 0
0.720000 0.040000 0
0.740000 0.040000 0
0.760000 0.040000 0
0.780000 0.040000 0
0.800000 0.040000 0
0.820000 0.040000 0
0.840000 0.040000 0
0.860000 0.040000 0
0.880000 0.040000 0
0.900000 0.040000 0
0.920000 0.040000 0
0.940000 0.040000 0
0.960000 0.040000 0
0.980000 0.040000 0
1.000000 0.040000 0
0.000000 0.060000 0
0.020000 0.060000 0
0.040000 0.060000 0
0.060000 0.060000 0
0.080000 0.060000 0
0.100000 0.060000 0
0.120000 0.060000 0
0.140000 0.060000 0
0.160000 0.060000 0
0.180000 0.060000 0
0.200000 0.060000 0
0.220000 0.060000 0
0.240000 0.060000 0
0.260000 0.060000 0
0.280000 0.060000 0
0.300000 0.060000 0
0.320000 0.060000 0
0.340000 0.060000 0
0.360000 0.060000 0
0.380000 0.060000 0
0.400000 0.060000 0
0.420000 0.060000 0
0.440000 0.060000 0
0.460000 0.060000 0
0.480000 0.060000 0
0.500000 0.060000 0
0.520000 0.060000 0
0.540000 0.060000 0
0.560000 0.060000 0
0.580000 0.060000 0
0.600000 0.060000 0
0.620000 0.060000 0
0.640000 0.060000 0
0.660000 0.060000 0
0.680000 0.060000 0
0.700000 0.060000 0
0.720000 0.060000 0
0.740000 0.060000 0
0.760000 0.060000 0
0.780000 0.060000 0
0.800000 0.060000 0
0.820000 0.060000 0
0.840000 0.060000 0
0.860000 0.060000 0
0.880000 0.060000 0
0.900000 0.060000 0
0.920000 0.060000 0
0.940000 0.060000 0
0.960000 0.060000 0
0.980000 0.060000 0
1.000000 0.060000 0
0.000000 0.080000 0
0.020000 0.080000 0
0.040000 0.080000 0
0.060000 0.080000 0
0.080000 0.080000 0
0.100000 0.080000 0
0.120000 0.080000 0
0.140000 0.080000 0
0.160000 0.080000 0
0.180000 0.080000 0
0.200000 0.080000 0
0.220000 0.080000 0
0.240000 0.080000 0
0.260000 0.080000 0
0.280000 0.080000 0
0.300000 0.080000 0
0.320000 0.080000 0
0.340000 0.080000 0
0.360000 0.080000 0
0.380000 0.080000 0
0.400000 0.080000 0
0.420000 0.080000 0
0.440000 0.080000 0
0.460000 0.080000 0
0.480000 0.080000 0
0.500000 0.080000 0
0.520000 0.080000 0
0.540000 0.080000 0
0.560000 0.080000 0
0.580000 0.080000 0
0.600000 0.080000 0
0.620000 0.080000 0
0.640000 0.080000 0
0.660000 0.080000 0
0.680000 0.080000 0
0.700000 0.080000 0
0.720000 0.080000 0
0.740000 0.080000 0
0.760000 0.080000 0
0.780000 0.080000 0
0.800000 0.080000 0
0.820000 0.080000 0
0.840000 0.080000 0
0.860000 0.080000 0
0.880000 0.080000 0
0.900000 0.080000 0
0.920000 0.080000 0
0.940000 0.080000 0
0.960000 0.080000 0
0.980000 0.080000 0
1.000000 0.080000 0
0.000000 0.100000 0
0.020000 0.100000 0
0.040000 0.100000 0
0.060000 0.100000 0
0.080000 0.100000 0
0.100000 0.100000 0
0.120000 0.100000 0
0.140000 0.100000 0
0.160000 0.100000 0
0.180000 0.100000 0
0.200000 0.100000 0
0.220000 0.100000 0
0.240000 0.100000 0
0.260000 0.100000 0
0.280000 0.100000 0
0.300000 0.100000 0
0.320000 0.100000 0
0.340000 0.100000 0
0.360000 0.100000 0
0.380000 0.100000 0
0.400000 0.100000 0
0.420000 0.100000 0
0.440000 0.100000 0
0.460000 0.100000 0
0.480000 0.100000 0
0.500000 0.100000 0
0.520000 0.100000 0
0.540000 0.100000 0
0.560000 0.100000 0
0.580000 0.100000 0
0.600000 0.100000 0
0.620000 0.100000 0
0.640000 0.100000 0
0.660000 0.100000 0
0.680000 0.100000 0
0.700000 0.100000 0
0.720000 0.100000 0
0.740000 0.100000 0
0.760000 0.100000 0
0.780000 0.100000 0
0.800000 0.100000 0
0.820000 0.100000 0
0.840000 0.100000 0
0.860000 0.100000 0
0.880000 0.100000 0
0.900000 0.100000 0
0.920000 0.100000 0
0.940000 0.100000 0
0.960000 0.100000 0
0.980000 0.100000 0
1.000000 0.100000 0
0.000000 0.120000 0
0.020000 0.120000 0
0.040000 0.120000 0
0.060000 0.120000 0
0.080000 0.120000 0
0.100000 0.120000 0
0.120000 0.120000 0
0.140000 0.120000 0
0.160000 0.120000 0
0.180000 0.120000 0
0.200000 0.120000 0
0.220000 0.120000 0
0.240000 0.120000 0
0.260000 0.120000 0
0.280000 0.120000 0
0.300000 0.120000 0
0.320000 0.120000 0
0.340000 0.120000 0
0.360000 0.120000 0
0.380000 0.120000 0
0.400000 0.120000 0
0.420000 0.120000 0
0.440000 0.120000 0
0.460000 0.120000 0
0.480000 0.120000 0
0.500000 0.120000 0
0.520000 0.120000 0
0.540000 0.120000 0
0.560000 0.120000 0
0.580000 0.120000 0
0.600000 0.120000 0
0.620000 0.120000 0
0.640000 0.120000 0
0.660000 0.120000 0
0.680000 0.120000 0
0.700000 0.120000 0
0.720000 0.120000 0
0.740000 0.120000 0
0.760000 0.120000 0
0.780000 0.120000 0
0.800000 0.120000 0
0.820000 0.120000 0
0.840000 0.120000 0
0.860000 0.120000 0
0.880000 0.120000 0
0.900000 0.120000 0
0.920000 0.120000 0
0.940000 0.120000 0
0.960000 0.120000 0
0.980000 0.120000 0
1.000000 0.120000 0
0.000000 0.140000 0
0.020000 0.140000 0
0.040000 0.140000 0
0.060000 0.140000 0
0.080000 0.140000 0
0.100000 0.140000 0
0.120000 0.140000 0
0.140000 0.140000 0
0.160000 0.140000 0
0.180000 0.140000 0
0.200000 0.140000 0
0.220000 0.140000 0
0.240000 0.140000 0
0.260000 0.140000 0
0.280000 0.140000 0
0.300000 0.140000 0
0.320000 0.140000 0
0.340000 0.140000 0
0.360000 0.140000 0
0.380000 0.140000 0
0.400000 0.140000 0
0.420000 0.140000 0
0.440000 0.140000 0
0.460000 0.140000 0
0.480000 0.140000 0
0.500000 0.140000 0
0.520000 0.140000 0
0.540000 0.140000 0
0.560000 0.140000 0
0.580000 0.140000 0
0.600000 0.140000 0
0.620000 0.140000 0
0.640000 0.140000 0
0.660000 0.140000 0
0.680000 0.140000 0
0.700000 0.140000 0
0.720000 0.140000 0
0.740000 0.140000 0
0.760000 0.140000 0
0.780000 0.140000 0
0.800000 0.140000 0
0.820000 0.140000 0
0.840000 0.140000 0
0.860000 0.140000 0
0.880000 0.140000 0
0.900000 0.140000 0
0.920000 0.140000 0
0.940000 0.140000 0
0.960000 0.140000 0
0.980000 0.140000 0
1.000000 0.140000 0
0.000000 0.160000 0
0.020000 0.160000 0
0.040000 0.160000 0
0.060000 0.160000 0
0.080000 0.160000 0
0.100000 0.160000 0
0.120000 0.160000 0
0.140000 0.160000 0
0.160000 0.160000 0
0.180000 0.160000 0
0.200000 0.160000 0
0.220000 0.160000 0
0.240000 0.160000 0
0.260000 0.160000 0
0.280000 0.160000 0
0.300000 0.160000 0
0.320000 0.160000 0
0.340000 0.160000 0
0.360000 0.160000 0
0.380000 0.160000 0
0.400000 0.160000 0
0.420000 0.160000 0
0.440000 0.160000 0
0.460000 0.160000 0
0.480000 0.160000 0
0.500000 0.160000 0
0.520000 0.160000 0
0.540000 0.160000 0
0.560000 0.160000 0
0.580000 0.160000 0
0.600000 0.160000 0
0.620000 0.160000 0
0.640000 0.160000 0
0.660000 0.160000 0
0.680000 0.160000 0
0.700000 0.160000 0
0.720000 0.160000 0
0.740000 0.160000 0
0.760000 0.160000 0
0.780000 0.160000 0
0.800000 0.160000 0
0.820000 0.160000 0
0.840000 0.160000 0
0.860000 0.160000 0
0.880000 0.160000 0
0.900000 0.160000 0
0.920000 0.160000 0
0.940000 0.160000 0
0.960000 0.160000 0
0.980000 0.160000 0
1.000000 0.160000 0
0.000000 0.180000 0
0.020000 0.180000 0
0.040000 0.180000 0
0.060000 0.180000 0
0.080000 0.180000 0
0.100000 0.180000 0
0.120000 0.180000 0
0.140000 0.180000 0
0.160000 0.180000 0
0.180000 0.180000 0
0.200000 0.180000 0
0.220000 0.180000 0
0.240000 0.180000 0
0.260000 0.180000 0
0.280000 0.180000 0
0.300000 0.180000 0
0.320000 0.180000 0
0.340000 0.180000 0
0.360000 0.180000 0
0.380000 0.180000 0
0.400000 0.180000 0
0.420000 0.180000 0
0.440000 0.180000 0
0.460000 0.180000 0
0.480000 0.180000 0
0.500000 0.180000 0
0.520000 0.180000 0
0.540000 0.180000 0
0.560000 0.180000 0
0.580000 0.180000 0
0.600000 0.180000 0
0.620000 0.180000 0
[...]
POINT_DATA 2601 

VECTORS velocity float
0.000000 0.000000 0
-0.000000 0.000000 0
-0.000000 0.000000 0
-0.000000 0.000000 0
-0.000000 0.000000 0
-0.000000 0.000000 0
-0.000000 0.000000 0
-0.000000 0.000000 0
-0.000000 0.000000 0
-0.000001 0.000000 0
-0.000001 0.000000 0
-0.000001 0.000000 0
-0.000002 0.000000 0
-0.000002 0.000000 0
-0.000002 0.000000 0
-0.000002 0.000000 0
-0.000001 0.000000 0
-0.000001 0.000000 0
-0.000001 0.000000 0
-0.000001 0.000000 0
-0.000000 0.000000 0
-0.000000 0.000000 0
0.000000 0.000000 0
0.000000 0.000000 0
0.000000 0.000000 0
0.000001 0.000000 0
0.000001 0.000000 0
0.000001 0.000000 0
0.000001 0.000000 0
0.000001 0.000000 0
0.000001 0.000000 0
0.000001 0.000000 0
0.000001 0.000000 0
0.000001 0.000000 0
0.000001 0.000000 0
0.000000 0.000000 0
0.000000 0.000000 0
0.000000 0.000000 0
0.000000 0.000000 0
0.000000 0.000000 0
0.000000 0.000000 0
0.000000 0.000000 0
0.000000 0.000000 0
0.000000 0.000000 0
0.000000 0.000000 0
0.000000 0.000000 0
0.000000 0.000000 0
0.000000 0.000000 0
0.000000 0.000000 0
-0.000000 0.000000 0
0.000000 0.000000 0
0.000000 -0.000000 0
-0.001836 0.001950 0
-0.007237 0.003884 0
-0.014323 0.004377 0
-0.020998 0.003585 0
-0.025935 0.002158 0
-0.028644 0.000599 0
-0.029086 -0.000909 0
-0.027344 -0.002354 0
-0.023482 -0.003744 0
-0.017576 -0.005054 0
-0.009748 -0.006208 0
-0.000208 -0.007072 0
0.010694 -0.007591 0
0.022400 -0.007724 0
0.034349 -0.007417 0
0.045929 -0.006678 0
0.056487 -0.005568 0
0.065466 -0.004190 0
0.072389 -0.002670 0
0.076972 -0.001156 0
0.079133 0.000229 0
0.078997 0.001438 0
0.076860 0.002455 0
0.073076 0.003261 0
0.068011 0.003854 0
0.062033 0.004235 0
0.055504 0.004408 0
0.048762 0.004384 0
0.042111 0.004188 0
0.035804 0.003854 0
0.030031 0.003426 0
0.024915 0.002949 0
0.020509 0.002464 0
0.016812 0.002007 0
0.013775 0.001600 0
0.011321 0.001256 0
0.009357 0.000979 0
0.007786 0.000767 0
0.006514 0.000614 0
0.005459 0.000511 0
0.004550 0.000446 0
0.003735 0.000410 0
0.002979 0.000389 0
0.002266 0.000372 0
0.001598 0.000344 0
0.000999 0.000294 0
0.000506 0.000215 0
0.000165 0.000108 0
0.000004 0.000005 0
0.000000 -0.000000 0
0.000000 -0.000000 0
-0.003800 0.007235 0
-0.012795 0.012486 0
-0.024062 0.013760 0
-0.034796 0.011612 0
-0.043213 0.007647 0
-0.048572 0.003152 0
-0.050729 -0.001299 0
-0.049790 -0.005604 0
-0.045861 -0.009768 0
-0.039061 -0.013735 0
-0.029533 -0.017369 0
-0.017474 -0.020443 0
-0.003151 -0.022609 0
0.012966 -0.023656 0
0.030255 -0.023529 0
0.047925 -0.022139 0
0.065148 -0.019538 0
0.081072 -0.015903 0
0.094767 -0.011506 0
0.105474 -0.006745 0
0.112619 -0.002026 0
0.115924 0.002273 0
0.115529 0.005921 0
0.111985 0.008849 0
0.105939 0.011043 0
0.098055 0.012507 0
0.088977 0.013271 0
0.079291 0.013393 0
0.069511 0.012957 0
0.060057 0.012079 0
0.051246 0.010889 0
0.043289 0.009523 0
0.036302 0.008103 0
0.030310 0.006735 0
0.025273 0.005491 0
0.021100 0.004418 0
0.017671 0.003535 0
0.014853 0.002843 0
0.012516 0.002328 0
0.010537 0.001964 0
0.008814 0.001723 0
0.007267 0.001571 0
0.005840 0.001470 0
0.004506 0.001382 0
0.003266 0.001267 0
0.002152 0.001092 0
0.001215 0.000834 0
0.000519 0.000502 0
0.000112 0.000165 0
0.000000 0.000000 0
0.000000 -0.000000 0
-0.005002 0.014743 0
-0.016282 0.024146 0
-0.030213 0.026378 0
-0.043682 0.022737 0
-0.054774 0.015935 0
-0.062684 0.008116 0
-0.067241 0.000309 0
-0.068540 -0.007223 0
-0.066776 -0.014474 0
-0.062112 -0.021384 0
-0.054691 -0.027794 0
-0.044669 -0.033454 0
-0.032199 -0.038030 0
-0.017401 -0.041130 0
-0.000580 -0.042376 0
0.017842 -0.041572 0
0.037299 -0.038716 0
0.056906 -0.033809 0
0.075666 -0.027072 0
0.092559 -0.019008 0
0.106448 -0.010221 0
0.116338 -0.001471 0
0.121655 0.006393 0
0.122285 0.012850 0
0.119012 0.017784 0
0.112752 0.021197 0
0.104402 0.023172 0
0.094780 0.023850 0
0.084593 0.023423 0
0.074407 0.022120 0
0.064653 0.020194 0
0.055630 0.017893 0
0.047518 0.015444 0
0.040396 0.013036 0
0.034259 0.010810 0
0.029044 0.008858 0
0.024645 0.007225 0
0.020936 0.005922 0
0.017785 0.004931 0
0.015064 0.004212 0
0.012664 0.003716 0
0.010494 0.003384 0
0.008493 0.003151 0
0.006626 0.002945 0
0.004893 0.002698 0
0.003322 0.002346 0
0.001971 0.001848 0
0.000917 0.001212 0
0.000239 0.000524 0
0.000000 0.000000 0
0.000000 -0.000000 0
-0.005564 0.023516 0
-0.018090 0.037697 0
-0.033652 0.041162 0
-0.049021 0.036174 0
-0.062234 0.026649 0
-0.072479 0.015619 0
-0.079590 0.004555 0
-0.083651 -0.006070 0
-0.084891 -0.016197 0
-0.083515 -0.025820 0
-0.079665 -0.034811 0
-0.073448 -0.042934 0
-0.064944 -0.049877 0
-0.054204 -0.055276 0
-0.041237 -0.058773 0
-0.026063 -0.060018 0
-0.008863 -0.058602 0
0.009966 -0.054270 0
0.029943 -0.047160 0
0.050165 -0.037527 0
0.069352 -0.025805 0
0.086161 -0.012935 0
0.099352 -0.000027 0
0.107670 0.011492 0
0.110614 0.020576 0
0.109198 0.027117 0
0.104493 0.031242 0
0.097527 0.033202 0
0.089211 0.033331 0
0.080273 0.032019 0
0.071267 0.029666 0
0.062600 0.026658 0
0.054539 0.023338 0
0.047236 0.019994 0
0.040754 0.016843 0
0.035082 0.014031 0
0.030160 0.011642 0
0.025897 0.009704 0
0.022184 0.008200 0
0.018914 0.007086 0
0.015986 0.006294 0
0.013317 0.005742 0
0.010847 0.005338 0
0.008539 0.004982 0
0.006388 0.004572 0
0.004421 0.004014 0
0.002696 0.003238 0
0.001305 0.002234 0
0.000362 0.001083 0
0.000000 0.000000 0
0.000000 -0.000000 0
-0.005680 0.032832 0
-0.018645 0.052236 0
-0.035036 0.057311 0
-0.051657 0.051320 0
-0.066518 0.039393 0
-0.078773 0.025470 0
-0.088250 0.011479 0
-0.095035 -0.001923 0
-0.099286 -0.014611 0
-0.101237 -0.026609 0
-0.101043 -0.037860 0
-0.098790 -0.048174 0
-0.094518 -0.057275 0
-0.088228 -0.064838 0
-0.079888 -0.070518 0
-0.069461 -0.073947 0
-0.056904 -0.074746 0
-0.042118 -0.072615 0
-0.025129 -0.067271 0
-0.006304 -0.058418 0
0.013787 -0.046218 0
0.034287 -0.031472 0
0.053744 -0.015116 0
0.070342 0.001588 0
0.082204 0.016256 0
0.088485 0.027318 0
0.090105 0.034843 0
0.088212 0.039132 0
0.083903 0.040676 0
0.078044 0.040064 0
0.071335 0.037867 0
0.064318 0.034622 0
0.057374 0.030807 0
0.050758 0.026821 0
0.044624 0.022964 0
0.039045 0.019451 0
0.034030 0.016411 0
0.029547 0.013898 0
0.025535 0.011913 0
0.021921 0.010410 0
0.018633 0.009313 0
0.015606 0.008524 0
0.012787 0.007929 0
0.010143 0.007404 0
0.007668 0.006816 0
0.005381 0.006038 0
0.003343 0.004964 0
0.001657 0.003545 0
0.000476 0.001828 0
0.000000 0.000000 0
0.000000 -0.000000 0
-0.005493 0.042161 0
-0.018285 0.067054 0
-0.034855 0.074175 0
-0.052181 0.067656 0
-0.068251 0.053764 0
-0.082144 0.037348 0
-0.093646 0.020815 0
-0.102827 0.004966 0
-0.109797 -0.009994 0
-0.114722 -0.024062 0
-0.117796 -0.037258 0
-0.119110 -0.049460 0
-0.118696 -0.060440 0
-0.116543 -0.069906 0
-0.112609 -0.077540 0
-0.106826 -0.083002 0
-0.099093 -0.085946 0
-0.089269 -0.086046 0
-0.077255 -0.082974 0
-0.062916 -0.076443 0
-0.046105 -0.066397 0
-0.027012 -0.052892 0
-0.006404 -0.036082 0
0.014627 -0.016968 0
0.034547 0.002433 0
0.050607 0.019216 0
0.060792 0.031516 0
0.066237 0.039404 0
0.068039 0.043499 0
0.067089 0.044586 0
0.064241 0.043393 0
0.060193 0.040619 0
0.055462 0.036897 0
0.050432 0.032743 0
0.045377 0.028556 0
0.040480 0.024625 0
0.035845 0.021140 0
0.031521 0.018199 0
0.027514 0.015826 0
0.023807 0.013987 0
0.020367 0.012609 0
0.017157 0.011589 0
0.014144 0.010800 0
0.011303 0.010101 0
0.008626 0.009334 0
0.006129 0.008338 0
0.003869 0.006963 0
0.001956 0.005102 0
0.000577 0.002740 0
0.000000 0.000000 0
0.000000 0.000000 0
-0.005105 0.051118 0
-0.017269 0.081599 0
-0.033494 0.091208 0
-0.051047 0.084715 0
-0.067916 0.069354 0
-0.083069 0.050863 0
-0.096215 0.032161 0
-0.107398 0.014229 0
-0.116725 -0.002714 0
-0.124258 -0.018610 0
-0.130175 -0.033473 0
-0.134609 -0.047275 0
-0.137597 -0.059843 0
-0.139128 -0.070925 0
-0.139157 -0.080235 0
-0.137606 -0.087463 0
-0.134362 -0.092303 0
-0.129277 -0.094453 0
-0.122175 -0.093625 0
-0.112822 -0.089569 0
-0.100954 -0.082122 0
-0.086432 -0.071172 0
-0.069151 -0.056755 0
-0.049126 -0.039362 0
-0.027068 -0.019724 0
-0.004674 0.001072 0
0.015097 0.019213 0
0.029987 0.031884 0
0.039940 0.039823 0
0.045759 0.043862 0
0.048446 0.044763 0
0.048827 0.043401 0
0.047543 0.040568 0
0.045132 0.036906 0
0.042015 0.032917 0
0.038512 0.028983 0
0.034846 0.025369 0
0.031166 0.022229 0
0.027567 0.019628 0
0.024103 0.017558 0
0.020795 0.015963 0
0.017650 0.014747 0
0.014660 0.013783 0
0.011814 0.012922 0
0.009110 0.011990 0
0.006559 0.010795 0
0.004210 0.009137 0
0.002174 0.006837 0
0.000660 0.003785 0
0.000000 0.000000 0
0.000000 0.000001 0
-0.004588 0.059431 0
-0.015802 0.095444 0
-0.031264 0.107952 0
-0.048626 0.102077 0
-0.065919 0.085784 0
-0.081981 0.065646 0
-0.096414 0.045145 0
-0.109229 0.025477 0
-0.120529 0.006865 0
-0.130373 -0.010612 0
-0.138801 -0.026907 0
-0.145983 -0.042040 0
-0.151981 -0.055920 0
-0.156788 -0.068346 0
-0.160349 -0.079063 0
-0.162575 -0.087798 0
-0.163344 -0.094276 0
-0.162501 -0.098233 0
-0.159858 -0.099430 0
-0.155175 -0.097664 0
-0.148172 -0.092786 0
-0.138559 -0.084695 0
-0.125997 -0.073388 0
-0.110211 -0.059052 0
-0.091243 -0.042019 0
-0.069335 -0.022950 0
-0.045220 -0.003146 0
-0.022275 0.014560 0
-0.003167 0.027727 0
0.011188 0.036081 0
0.021327 0.040325 0
0.027826 0.041522 0
0.031461 0.040592 0
0.032949 0.038272 0
0.032870 0.035176 0
0.031700 0.031794 0
0.029795 0.028487 0
0.027430 0.025478 0
0.024809 0.022889 0
0.022073 0.020759 0
0.019316 0.019062 0
0.016597 0.017725 0
0.013945 0.016636 0
0.011376 0.015651 0
0.008894 0.014590 0
0.006512 0.013238 0
0.004268 0.011347 0
0.002263 0.008651 0
0.000713 0.004914 0
0.000000 0.000000 0
0.000000 0.000001 0
-0.003999 0.066921 0
-0.014053 0.108275 0
-0.028428 0.124029 0
-0.045237 0.119368 0
-0.062612 0.102708 0
-0.079263 0.081358 0
-0.094663 0.059411 0
-0.108772 0.038344 0
-0.121701 0.018430 0
-0.133538 -0.000338 0
-0.144248 -0.017864 0
-0.153884 -0.034095 0
-0.162565 -0.049037 0
-0.170293 -0.062558 0
-0.177005 -0.074448 0
-0.182593 -0.084469 0
-0.186915 -0.092377 0
-0.189802 -0.097939 0
-0.191054 -0.100952 0
-0.190442 -0.101255 0
-0.187705 -0.098738 0
-0.182546 -0.093347 0
-0.174626 -0.085103 0
-0.163602 -0.074117 0
-0.149203 -0.060600 0
-0.131233 -0.044951 0
-0.109800 -0.027847 0
-0.085618 -0.010169 0
-0.061118 0.006360 0
-0.038736 0.019368 0
-0.020327 0.028126 0
-0.006258 0.033267 0
0.003989 0.035445 0
0.011016 0.035497 0
0.015449 0.034166 0
0.017884 0.032058 0
0.018843 0.029638 0
0.018749 0.027216 0
0.017930 0.024985 0
0.016636 0.023051 0
0.015046 0.021440 0
0.013285 0.020118 0
0.011437 0.019004 0
0.009552 0.017973 0
0.007654 0.016854 0
0.005759 0.015422 0
0.003896 0.013386 0
0.002148 0.010392 0
0.000713 0.006048 0
0.000000 0.000000 0
0.000000 0.000001 0
-0.003384 0.073485 0
-0.012155 0.119871 0
-0.025208 0.139135 0
-0.041157 0.136260 0
-0.058304 0.119810 0
-0.075259 0.097699 0
-0.091345 0.074655 0
-0.106452 0.052515 0
-0.120691 0.031631 0
-0.134170 0.011934 0
-0.146907 -0.006561 0
-0.158785 -0.023722 0
-0.169871 -0.039511 0
-0.180205 -0.053906 0
-0.189721 -0.066764 0
-0.198297 -0.077888 0
-0.205764 -0.087067 0
-0.211925 -0.094094 0
-0.216560 -0.098789 0
-0.219431 -0.101014 0
-0.220288 -0.100683 0
-0.218866 -0.097774 0
-0.214885 -0.092332 0
-0.208056 -0.084475 0
-0.198099 -0.074388 0
-0.184764 -0.062353 0
-0.167939 -0.048761 0
-0.147767 -0.034121 0
-0.124687 -0.019155 0
-0.100154 -0.004711 0
-0.076474 0.007846 0
-0.055267 0.017207 0
-0.037643 0.023318 0
-0.023814 0.026812 0
-0.013366 0.028308 0
-0.005769 0.028400 0
-0.000481 0.027622 0
0.003011 0.026392 0
0.005157 0.025002 0
0.006326 0.023643 0
0.006787 0.022412 0
0.006753 0.021333 0
0.006375 0.020370 0
0.005754 0.019435 0
0.004948 0.018383 0
0.003986 0.016996 0
0.002891 0.014959 0
0.001717 0.011834 0
0.000624 0.007061 0
0.000000 0.000000 0
0.000000 0.000001 0
-0.002774 0.079077 0
-0.010216 0.130097 0
-0.021791 0.153030 0
-0.036628 0.152464 0
-0.053269 0.136810 0
-0.070268 0.114400 0
-0.086792 0.090604 0
-0.102628 0.067689 0
-0.117875 0.046148 0
-0.132667 0.025878 0
-0.147066 0.006752 0
-0.160984 -0.011131 0
-0.174248 -0.027618 0
-0.186897 -0.042708 0
-0.198893 -0.056356 0
-0.210104 -0.068427 0
-0.220345 -0.078748 0
-0.229387 -0.087143 0
-0.236980 -0.093446 0
-0.242859 -0.097527 0
-0.246764 -0.099303 0
-0.248442 -0.098751 0
-0.247657 -0.095914 0
-0.244194 -0.090903 0
-0.237860 -0.083892 0
-0.228494 -0.075111 0
-0.215999 -0.064843 0
-0.200375 -0.053421 0
-0.181776 -0.041253 0
-0.160634 -0.028845 0
-0.137634 -0.016761 0
-0.114231 -0.005564 0
-0.092033 0.003992 0
-0.072123 0.011220 0
-0.055153 0.016122 0
-0.041329 0.019173 0
-0.030400 0.020859 0
-0.021922 0.021577 0
-0.015436 0.021670 0
-0.010531 0.021421 0
-0.006867 0.021013 0
-0.004154 0.020531 0
-0.002160 0.020003 0
-0.000727 0.019400 0
0.000246 0.018622 0
0.000814 0.017479 0
0.001002 0.015655 0
0.000832 0.012659 0
0.000397 0.007765 0
0.000000 0.000000 0
0.000000 0.000001 0
-0.002193 0.083701 0
-0.008322 0.138887 0
-0.018335 0.165545 0
-0.031861 0.167738 0
-0.047747 0.153452 0
-0.064554 0.131223 0
-0.081293 0.107015 0
-0.097626 0.083598 0
-0.113610 0.061669 0
-0.129395 0.041126 0
-0.145074 0.021755 0
-0.160642 0.003459 0
-0.175895 -0.013598 0
-0.190611 -0.029261 0
-0.204777 -0.043557 0
-0.218284 -0.056436 0
-0.230942 -0.067784 0
-0.242508 -0.077459 0
-0.252700 -0.085318 0
-0.261223 -0.091231 0
-0.267787 -0.095101 0
-0.272123 -0.096881 0
-0.274005 -0.096580 0
-0.273252 -0.094272 0
-0.269738 -0.090088 0
-0.263392 -0.084214 0
-0.254199 -0.076880 0
-0.242204 -0.068343 0
-0.227518 -0.058896 0
-0.210357 -0.048854 0
-0.191084 -0.038557 0
-0.170214 -0.028393 0
-0.148395 -0.018790 0
-0.126628 -0.010068 0
-0.105992 -0.002486 0
-0.087214 0.003647 0
-0.070679 0.008215 0
-0.056518 0.011428 0
-0.044668 0.013612 0
-0.034920 0.015074 0
-0.026917 0.016035 0
-0.020348 0.016627 0
-0.014951 0.016944 0
-0.010530 0.017028 0
-0.006947 0.016841 0
-0.004119 0.016240 0
-0.002014 0.014941 0
-0.000646 0.012440 0
-0.000022 0.007894 0
0.000000 0.000000 0
0.000000 0.000001 0
-0.001658 0.087397 0
-0.006532 0.146236 0
-0.014964 0.176569 0
-0.027038 0.181878 0
-0.041952 0.169505 0
-0.058346 0.147947 0
-0.075099 0.123676 0
-0.091726 0.100006 0
-0.108210 0.077916 0
-0.124698 0.057342 0
-0.141306 0.037999 0
-0.158058 0.019690 0
-0.174875 0.002351 0
-0.191458 -0.013825 0
-0.207534 -0.028683 0
-0.223013 -0.042261 0
-0.237739 -0.054524 0
-0.251477 -0.065385 0
-0.263936 -0.074731 0
-0.274798 -0.082441 0
-0.283741 -0.088403 0
-0.290465 -0.092532 0
-0.294717 -0.094785 0
-0.296306 -0.095171 0
-0.295116 -0.093753 0
-0.291111 -0.090650 0
-0.284331 -0.086031 0
-0.274880 -0.080102 0
-0.262921 -0.073100 0
-0.248663 -0.065279 0
-0.232367 -0.056905 0
-0.214343 -0.048252 0
-0.194996 -0.039594 0
-0.174824 -0.031184 0
-0.154326 -0.023291 0
-0.134043 -0.016140 0
-0.114609 -0.009838 0
-0.096550 -0.004434 0
-0.080171 0.000073 0
-0.065576 0.003670 0
-0.052739 0.006441 0
-0.041568 0.008565 0
-0.031940 0.010185 0
-0.023710 0.011396 0
-0.016735 0.012211 0
-0.010922 0.012546 0
-0.006248 0.012183 0
-0.002783 0.010666 0
-0.000662 0.007119 0
0.000000 -0.000000 0
0.000000 0.000000 0
-0.001178 0.090231 0
-0.004890 0.152191 0
-0.011776 0.186051 0
-0.022311 0.194728 0
-0.036070 0.184761 0
-0.051843 0.164369 0
-0.068423 0.140394 0
-0.085162 0.116708 0
-0.101941 0.094642 0
-0.118878 0.074223 0
-0.136100 0.055115 0
-0.153653 0.037028 0
-0.171484 0.019802 0
-0.189457 0.003398 0
-0.207204 -0.012001 0
-0.224401 -0.026230 0
-0.240866 -0.039321 0
-0.256424 -0.051262 0
-0.270814 -0.061996 0
-0.283717 -0.071426 0
-0.294795 -0.079434 0
-0.303715 -0.085905 0
-0.310183 -0.090740 0
-0.313964 -0.093873 0
-0.314906 -0.095282 0
-0.312946 -0.094999 0
-0.308117 -0.093110 0
-0.300539 -0.089753 0
-0.290403 -0.085113 0
-0.277955 -0.079408 0
-0.263476 -0.072876 0
-0.247271 -0.065764 0
-0.229660 -0.058309 0
-0.210979 -0.050739 0
-0.191565 -0.043268 0
-0.171810 -0.036070 0
-0.152095 -0.029278 0
-0.132770 -0.023010 0
-0.114140 -0.017363 0
-0.096462 -0.012358 0
-0.080004 -0.007973 0
-0.064920 -0.004173 0
-0.051283 -0.000914 0
-0.039101 0.001824 0
-0.028371 0.004053 0
-0.019112 0.005753 0
-0.011412 0.006802 0
-0.005437 0.006854 0
-0.001485 0.005111 0
0.000000 -0.000000 0
0.000000 0.000000 0
-0.000759 0.092286 0
-0.003423 0.156834 0
-0.008842 0.193991 0
-0.017804 0.206173 0
-0.030259 0.199037 0
-0.045219 0.180300 0
-0.061444 0.156994 0
-0.078129 0.133523 0
-0.095022 0.111632 0
-0.112188 0.091502 0
-0.129748 0.072774 0
-0.147762 0.055074 0
-0.166198 0.038155 0
-0.184947 0.021895 0
-0.203824 0.006261 0
-0.222436 -0.008599 0
-0.240407 -0.022501 0
-0.257460 -0.035437 0
-0.273435 -0.047438 0
-0.288057 -0.058460 0
-0.301000 -0.068405 0
-0.311920 -0.077144 0
-0.320484 -0.084536 0
-0.326401 -0.090448 0
-0.329454 -0.094771 0
-0.329514 -0.097438 0
-0.326552 -0.098438 0
-0.320645 -0.097817 0
-0.311964 -0.095684 0
-0.300760 -0.092206 0
-0.287341 -0.087589 0
-0.272046 -0.082068 0
-0.255222 -0.075886 0
-0.237209 -0.069279 0
-0.218330 -0.062460 0
-0.198893 -0.055610 0
-0.179179 -0.048878 0
-0.159447 -0.042389 0
-0.139950 -0.036236 0
-0.120936 -0.030465 0
-0.102616 -0.025101 0
-0.085175 -0.020157 0
-0.068769 -0.015634 0
-0.053544 -0.011516 0
-0.039662 -0.007777 0
-0.027305 -0.004413 0
-0.016711 -0.001493 0
-0.008216 0.000739 0
-0.002362 0.001682 0
0.000000 -0.000000 0
0.000000 -0.000000 0
-0.000402 0.093653 0
-0.002144 0.160275 0
-0.006206 0.200433 0
-0.013610 0.216145 0
-0.024653 0.212176 0
-0.038621 0.195554 0
-0.054313 0.173304 0
-0.070783 0.150286 0
-0.087630 0.128702 0
-0.104835 0.108949 0
-0.122494 0.090688 0
-0.140672 0.073477 0
-0.159355 0.056988 0
-0.178455 0.041024 0
-0.197818 0.025489 0
-0.217234 0.010353 0
-0.236324 -0.004296 0
-0.254668 -0.018234 0
-0.271910 -0.031399 0
-0.287906 -0.043860 0
-0.302397 -0.055570 0
-0.315062 -0.066421 0
-0.325553 -0.076259 0
-0.333532 -0.084902 0
-0.338711 -0.092170 0
-0.340872 -0.097901 0
-0.339898 -0.101978 0
-0.335778 -0.104341 0
-0.328611 -0.104997 0
-0.318607 -0.104031 0
-0.306058 -0.101591 0
-0.291323 -0.097883 0
-0.274789 -0.093146 0
-0.256847 -0.087632 0
-0.237868 -0.081585 0
-0.218188 -0.075221 0
-0.198098 -0.068723 0
-0.177851 -0.062239 0
-0.157669 -0.055873 0
-0.137756 -0.049692 0
-0.118286 -0.043735 0
-0.099427 -0.038020 0
-0.081348 -0.032545 0
-0.064235 -0.027283 0
-0.048292 -0.022185 0
-0.033772 -0.017199 0
-0.021013 -0.012287 0
-0.010523 -0.007494 0
-0.003101 -0.003105 0
0.000000 -0.000001 0
0.000000 -0.000000 0
-0.000109 0.094429 0
-0.001057 0.162639 0
-0.003893 0.205458 0
-0.009795 0.224620 0
-0.019360 0.224048 0
-0.032178 0.209958 0
-0.047156 0.189155 0
-0.063251 0.166841 0
-0.079901 0.145684 0
-0.096977 0.126365 0
-0.114531 0.108612 0
-0.132623 0.091936 0
-0.151248 0.075938 0
-0.170336 0.060358 0
-0.189760 0.045040 0
-0.209345 0.029906 0
-0.228873 0.014933 0
-0.248016 0.000149 0
-0.266312 -0.014200 0
-0.283389 -0.027973 0
-0.299079 -0.041248 0
-0.313163 -0.053987 0
-0.325324 -0.066065 0
-0.335204 -0.077290 0
-0.342458 -0.087430 0
-0.346787 -0.096250 0
-0.347969 -0.103532 0
-0.345880 -0.109104 0
-0.340516 -0.112855 0
-0.331994 -0.114758 0
-0.320550 -0.114872 0
-0.306518 -0.113337 0
-0.290298 -0.110362 0
-0.272325 -0.106200 0
-0.253031 -0.101119 0
-0.232819 -0.095380 0
-0.212046 -0.089216 0
-0.191013 -0.082818 0
-0.169972 -0.076330 0
-0.149131 -0.069849 0
-0.128665 -0.063430 0
-0.108733 -0.057094 0
-0.089496 -0.050826 0
-0.071132 -0.044572 0
-0.053853 -0.038240 0
-0.037940 -0.031692 0
-0.023789 -0.024742 0
-0.012010 -0.017173 0
-0.003568 -0.008841 0
0.000000 -0.000001 0
0.000000 0.000000 0
0.000130 0.094709 0
-0.000161 0.164060 0
-0.001910 0.209172 0
-0.006396 0.231611 0
-0.014458 0.234558 0
-0.025994 0.223350 0
-0.040084 0.204378 0
-0.055638 0.183032 0
-0.071944 0.162427 0
-0.088738 0.143578 0
-0.106011 0.126335 0
-0.123804 0.110195 0
-0.142117 0.094702 0
-0.160893 0.079536 0
-0.180025 0.064498 0
-0.199373 0.049466 0
-0.218760 0.034375 0
-0.237974 0.019206 0
-0.256759 0.003973 0
-0.274636 -0.011093 0
-0.291229 -0.025795 0
-0.306358 -0.040176 0
-0.319836 -0.054217 0
-0.331344 -0.067767 0
-0.340509 -0.080586 0
-0.346971 -0.092391 0
-0.350413 -0.102886 0
-0.350596 -0.111794 0
-0.347384 -0.118884 0