# vtk DataFile Version 2.0
generated by CFD-lab course output (written by Tobias Neckel) 
ASCII

DATASET STRUCTURED_GRID
DIMENSIONS  51 51 1 
POINTS 2601 float

0.000000 0.000000 0
0.020000 0.000000 0
0.040000 0.000000 0
0.060000 0.000000 0
0.080000 0.000000 0
0.100000 0.000000 0
0.120000 0.000000 0
0.140000 0.000000 0
0.160000 0.000000 0
0.180000 0.000000 0
0.200000 0.000000 0
0.220000 0.000000 0
0.240000 0.000000 0
0.260000 0.000000 0
0.280000 0.000000 0
0.300000 0.000000 0
0.320000 0.000000 0
0.340000 0.000000 0
0.360000 0.000000 0
0.380000 0.000000 0
0.400000 0.000000 0
0.420000 0.000000 0
0.440000 0.000000 0
0.460000 0.000000 0
0.480000 0.000000 0
0.500000 0.000000 0
0.520000 0.000000 0
0.540000 0.000000 0
0.560000 0.000000 0
0.580000 0.000000 0
0.600000 0.000000 0
0.620000 0.000000 0
0.640000 0.000000 0
0.660000 0.000000 0
0.680000 0.000000 0
0.700000 0.000000 0
0.720000 0.000000 0
0.740000 0.000000 0
0.760000 0.000000 0
0.780000 0.000000 0
0.800000 0.000000 0
0.820000 0.000000 0
0.840000 0.000000 0
0.860000 0.000000 0
0.880000 0.000000 0
0.900000 0.000000 0
0.920000 0.000000 0
0.940000 0.000000 0
0.960000 0.000000 0
0.980000 0.000000 0
1.000000 0.000000 0
0.000000 0.020000 0
0.020000 0.020000 0
0.040000 0.020000 0
0.060000 0.020000 0
0.080000 0.020000 0
0.100000 0.020000 0
0.120000 0.020000 0
0.140000 0.020000 0
0.160000 0.020000 0
0.180000 0.020000 0
0.200000 0.020000 0
0.220000 0.020000 0
0.240000 0.020000 0
0.260000 0.020000 0
0.280000 0.020000 0
0.300000 0.020000 0
0.320000 0.020000 0
0.340000 0.020000 0
0.360000 0.020000 0
0.380000 0.020000 0
0.400000 0.020000 0
0.420000 0.020000 0
0.440000 0.020000 0
0.460000 0.020000 0
0.480000 0.020000 0
0.500000 0.020000 0
0.520000 0.020000 0
0.540000 0.020000 0
0.560000 0.020000 0
0.580000 0.020000 0
0.600000 0.020000 0
0.620000 0.020000 0
0.640000 0.020000 0
0.660000 0.020000 0
0.680000 0.020000 0
0.700000 0.020000 0
0.720000 0.020000 0
0.740000 0.020000 0
0.760000 0.020000 0
0.780000 0.020000 0
0.800000 0.020000 0
0.820000 0.020000 0
0.840000 0.020000 0
0.860000 0.020000 0
0.880000 0.020000 0
0.900000 0.020000 0
0.920000 0.020000 0
0.940000 0.020000 0
0.960000 0.020000 0
0.980000 0.020000 0
1.000000 0.020000 0
0.000000 0.040000 0
0.020000 0.040000 0
0.040000 0.040000 0
0.060000 0.040000 0
0.080000 0.040000 0
0.100000 0.040000 0
0.120000 0.040000 0
0.140000 0.040000 0
0.160000 0.040000 0
0.180000 0.040000 0
0.200000 0.040000 0
0.220000 0.040000 0
0.240000 0.040000 0
0.260000 0.040000 0
0.280000 0.040000 0
0.300000 0.040000 0
0.320000 0.040000 0
0.340000 0.040000 0
0.360000 0.040000 0
0.380000 0.040000 0
0.400000 0.040000 0
0.420000 0.040000 0
0.440000 0.040000 0
0.460000 0.040000 0
0.480000 0.040000 0
0.500000 0.040000 0
0.520000 0.040000 0
0.540000 0.040000 0
0.560000 0.040000 0
0.580000 0.040000 0
0.600000 0.040000 0
0.620000 0.040000 0
0.640000 0.040000 0
0.660000 0.040000 0
0.680000 0.040000 0
0.700000 0.040000 0
0.720000 0.040000 0
0.740000 0.040000 0
0.760000 0.040000 0
0.780000 0.040000 0
0.800000 0.040000 0
0.820000 0.040000 0
0.840000 0.040000 0
0.860000 0.040000 0
0.880000 0.040000 0
0.900000 0.040000 0
0.920000 0.040000 0
0.940000 0.040000 0
0.960000 0.040000 0
0.980000 0.040000 0
1.000000 0.040000 0
0.000000 0.060000 0
0.020000 0.060000 0
0.040000 0.060000 0
0.060000 0.060000 0
0.080000 0.060000 0
0.100000 0.060000 0
0.120000 0.060000 0
0.140000 0.060000 0
0.160000 0.060000 0
0.180000 0.060000 0
0.200000 0.060000 0
0.220000 0.060000 0
0.240000 0.060000 0
0.260000 0.060000 0
0.280000 0.060000 0
0.300000 0.060000 0
0.320000 0.060000 0
0.340000 0.060000 0
0.360000 0.060000 0
0.380000 0.060000 0
0.400000 0.060000 0
0.420000 0.060000 0
0.440000 0.060000 0
0.460000 0.060000 0
0.480000 0.060000 0
0.500000 0.060000 0
0.520000 0.060000 0
0.540000 0.060000 0
0.560000 0.060000 0
0.580000 0.060000 0
0.600000 0.060000 0
0.620000 0.060000 0
0.640000 0.060000 0
0.660000 0.060000 0
0.680000 0.060000 0
0.700000 0.060000 0
0.720000 0.060000 0
0.740000 0.060000 0
0.760000 0.060000 0
0.780000 0.060000 0
0.800000 0.060000 0
0.820000 0.060000 0
0.840000 0.060000 0
0.860000 0.060000 0
0.880000 0.060000 0
0.900000 0.060000 0
0.920000 0.060000 0
0.940000 0.060000 0
0.960000 0.060000 0
0.980000 0.060000 0
1.000000 0.060000 0
0.000000 0.080000 0
0.020000 0.080000 0
0.040000 0.080000 0
0.060000 0.080000 0
0.080000 0.080000 0
0.100000 0.080000 0
0.120000 0.080000 0
0.140000 0.080000 0
0.160000 0.080000 0
0.180000 0.080000 0
0.200000 0.080000 0
0.220000 0.080000 0
0.240000 0.080000 0
0.260000 0.080000 0
0.280000 0.080000 0
0.300000 0.080000 0
0.320000 0.080000 0
0.340000 0.080000 0
0.360000 0.080000 0
0.380000 0.080000 0
0.400000 0.080000 0
0.420000 0.080000 0
0.440000 0.080000 0
0.460000 0.080000 0
0.480000 0.080000 0
0.500000 0.080000 0
0.520000 0.080000 0
0.540000 0.080000 0
0.560000 0.080000 0
0.580000 0.080000 0
0.600000 0.080000 0
0.620000 0.080000 0
0.640000 0.080000 0
0.660000 0.080000 0
0.680000 0.080000 0
0.700000 0.080000 0
0.720000 0.080000 0
0.740000 0.080000 0
0.760000 0.080000 0
0.780000 0.080000 0
0.800000 0.080000 0
0.820000 0.080000 0
0.840000 0.080000 0
0.860000 0.080000 0
0.880000 0.080000 0
0.900000 0.080000 0
0.920000 0.080000 0
0.940000 0.080000 0
0.960000 0.080000 0
0.980000 0.080000 0
1.000000 0.080000 0
0.000000 0.100000 0
0.020000 0.100000 0
0.040000 0.100000 0
0.060000 0.100000 0
0.080000 0.100000 0
0.100000 0.100000 0
0.120000 0.100000 0
0.140000 0.100000 0
0.160000 0.100000 0
0.180000 0.100000 0
0.200000 0.100000 0
0.220000 0.100000 0
0.240000 0.100000 0
0.260000 0.100000 0
0.280000 0.100000 0
0.300000 0.100000 0
0.320000 0.100000 0
0.340000 0.100000 0
0.360000 0.100000 0
0.380000 0.100000 0
0.400000 0.100000 0
0.420000 0.100000 0
0.440000 0.100000 0
0.460000 0.100000 0
0.480000 0.100000 0
0.500000 0.100000 0
0.520000 0.100000 0
0.540000 0.100000 0
0.560000 0.100000 0
0.580000 0.100000 0
0.600000 0.100000 0
0.620000 0.100000 0
0.640000 0.100000 0
0.660000 0.100000 0
0.680000 0.100000 0
0.700000 0.100000 0
0.720000 0.100000 0
0.740000 0.100000 0
0.760000 0.100000 0
0.780000 0.100000 0
0.800000 0.100000 0
0.820000 0.100000 0
0.840000 0.100000 0
0.860000 0.100000 0
0.880000 0.100000 0
0.900000 0.100000 0
0.920000 0.100000 0
0.940000 0.100000 0
0.960000 0.100000 0
0.980000 0.100000 0
1.000000 0.100000 0
0.000000 0.120000 0
0.020000 0.120000 0
0.040000 0.120000 0
0.060000 0.120000 0
0.080000 0.120000 0
0.100000 0.120000 0
0.120000 0.120000 0
0.140000 0.120000 0
0.160000 0.120000 0
0.180000 0.120000 0
0.200000 0.120000 0
0.220000 0.120000 0
0.240000 0.120000 0
0.260000 0.120000 0
0.280000 0.120000 0
0.300000 0.120000 0
0.320000 0.120000 0
0.340000 0.120000 0
0.360000 0.120000 0
0.380000 0.120000 0
0.400000 0.120000 0
0.420000 0.120000 0
0.440000 0.120000 0
0.460000 0.120000 0
0.480000 0.120000 0
0.500000 0.120000 0
0.520000 0.120000 0
0.540000 0.120000 0
0.560000 0.120000 0
0.580000 0.120000 0
0.600000 0.120000 0
0.620000 0.120000 0
0.640000 0.120000 0
0.660000 0.120000 0
0.680000 0.120000 0
0.700000 0.120000 0
0.720000 0.120000 0
0.740000 0.120000 0
0.760000 0.120000 0
0.780000 0.120000 0
0.800000 0.120000 0
0.820000 0.120000 0
0.840000 0.120000 0
0.860000 0.120000 0
0.880000 0.120000 0
0.900000 0.120000 0
0.920000 0.120000 0
0.940000 0.120000 0
0.960000 0.120000 0
0.980000 0.120000 0
1.000000 0.120000 0
0.000000 0.140000 0
0.020000 0.140000 0
0.040000 0.140000 0
0.060000 0.140000 0
0.080000 0.140000 0
0.100000 0.140000 0
0.120000 0.140000 0
0.140000 0.140000 0
0.160000 0.140000 0
0.180000 0.140000 0
0.200000 0.140000 0
0.220000 0.140000 0
0.240000 0.140000 0
0.260000 0.140000 0
0.280000 0.140000 0
0.300000 0.140000 0
0.320000 0.140000 0
0.340000 0.140000 0
0.360000 0.140000 0
0.380000 0.140000 0
0.400000 0.140000 0
0.420000 0.140000 0
0.440000 0.140000 0
0.460000 0.140000 0
0.480000 0.140000 0
0.500000 0.140000 0
0.520000 0.140000 0
0.540000 0.140000 0
0.560000 0.140000 0
0.580000 0.140000 0
0.600000 0.140000 0
0.620000 0.140000 0
0.640000 0.140000 0
0.660000 0.140000 0
0.680000 0.140000 0
0.700000 0.140000 0
0.720000 0.140000 0
0.740000 0.140000 0
0.760000 0.140000 0
0.780000 0.140000 0
0.800000 0.140000 0
0.820000 0.140000 0
0.840000 0.140000 0
0.860000 0.140000 0
0.880000 0.140000 0
0.900000 0.140000 0
0.920000 0.140000 0
0.940000 0.140000 0
0.960000 0.140000 0
0.980000 0.140000 0
1.000000 0.140000 0
0.000000 0.160000 0
0.020000 0.160000 0
0.040000 0.160000 0
0.060000 0.160000 0
0.080000 0.160000 0
0.100000 0.160000 0
0.120000 0.160000 0
0.140000 0.160000 0
0.160000 0.160000 0
0.180000 0.160000 0
0.200000 0.160000 0
0.220000 0.160000 0
0.240000 0.160000 0
0.260000 0.160000 0
0.280000 0.160000 0
0.300000 0.160000 0
0.320000 0.160000 0
0.340000 0.160000 0
0.360000 0.160000 0
0.380000 0.160000 0
0.400000 0.160000 0
0.420000 0.160000 0
0.440000 0.160000 0
0.460000 0.160000 0
0.480000 0.160000 0
0.500000 0.160000 0
0.520000 0.160000 0
0.540000 0.160000 0
0.560000 0.160000 0
0.580000 0.160000 0
0.600000 0.160000 0
0.620000 0.160000 0
0.640000 0.160000 0
0.660000 0.160000 0
0.680000 0.160000 0
0.700000 0.160000 0
0.720000 0.160000 0
0.740000 0.160000 0
0.760000 0.160000 0
0.780000 0.160000 0
0.800000 0.160000 0
0.820000 0.160000 0
0.840000 0.160000 0
0.860000 0.160000 0
0.880000 0.160000 0
0.900000 0.160000 0
0.920000 0.160000 0
0.940000 0.160000 0
0.960000 0.160000 0
0.980000 0.160000 0
1.000000 0.160000 0
0.000000 0.180000 0
0.020000 0.180000 0
0.040000 0.180000 0
0.060000 0.180000 0
0.080000 0.180000 0
0.100000 0.180000 0
0.120000 0.180000 0
0.140000 0.180000 0
0.160000 0.180000 0
0.180000 0.180000 0
0.200000 0.180000 0
0.220000 0.180000 0
0.240000 0.180000 0
0.260000 0.180000 0
0.280000 0.180000 0
0.300000 0.180000 0
0.320000 0.180000 0
0.340000 0.180000 0
0.360000 0.180000 0
0.380000 0.180000 0
0.400000 0.180000 0
0.420000 0.180000 0
0.440000 0.180000 0
0.460000 0.180000 0
0.480000 0.180000 0
0.500000 0.180000 0
0.520000 0.180000 0
0.540000 0.180000 0
0.560000 0.180000 0
0.580000 0.180000 0
0.600000 0.180000 0
0.620000 0.180000 0
[...]
POINT_DATA 2601 

VECTORS velocity float
0.000000 0.000000 0
0.000001 0.000000 0
-0.000000 0.000000 0
-0.000001 0.000000 0
-0.000001 0.000000 0
-0.000001 0.000000 0
-0.000000 0.000000 0
-0.000000 0.000000 0
-0.000001 0.000000 0
-0.000001 0.000000 0
-0.000002 0.000000 0
-0.000002 0.000000 0
-0.000002 0.000000 0
-0.000002 0.000000 0
-0.000002 0.000000 0
-0.000002 0.000000 0
-0.000002 0.000000 0
-0.000002 0.000000 0
-0.000001 0.000000 0
-0.000001 0.000000 0
-0.000001 0.000000 0
-0.000000 0.000000 0
0.000000 0.000000 0
0.000000 0.000000 0
0.000001 0.000000 0
0.000001 0.000000 0
0.000001 0.000000 0
0.000001 0.000000 0
0.000001 0.000000 0
0.000001 0.000000 0
0.000001 0.000000 0
0.000001 0.000000 0
0.000001 0.000000 0
0.000001 0.000000 0
0.000001 0.000000 0
0.000001 0.000000 0
0.000000 0.000000 0
0.000000 0.000000 0
0.000000 0.000000 0
0.000000 0.000000 0
0.000000 0.000000 0
0.000000 0.000000 0
0.000000 0.000000 0
0.000000 0.000000 0
0.000000 0.000000 0
0.000000 0.000000 0
0.000000 0.000000 0
0.000000 0.000000 0
0.000000 0.000000 0
0.000000 0.000000 0
0.000000 0.000000 0
0.000000 0.000001 0
-0.001833 0.001947 0
-0.007212 0.003864 0
-0.014251 0.004340 0
-0.020857 0.003536 0
-0.025710 0.002100 0
-0.028321 0.000532 0
-0.028654 -0.000985 0
-0.026787 -0.002440 0
-0.022791 -0.003835 0
-0.016743 -0.005145 0
-0.008772 -0.006285 0
0.000899 -0.007130 0
0.011897 -0.007622 0
0.023657 -0.007722 0
0.035620 -0.007379 0
0.047151 -0.006604 0
0.057610 -0.005464 0
0.066432 -0.004063 0
0.073155 -0.002535 0
0.077516 -0.001027 0
0.079452 0.000346 0
0.079109 0.001540 0
0.076794 0.002538 0
0.072863 0.003327 0
0.067680 0.003904 0
0.061615 0.004270 0
0.055025 0.004428 0
0.048249 0.004390 0
0.041586 0.004182 0
0.035286 0.003839 0
0.029536 0.003403 0
0.024451 0.002921 0
0.020084 0.002435 0
0.016429 0.001978 0
0.013434 0.001572 0
0.011021 0.001230 0
0.009095 0.000956 0
0.007559 0.000746 0
0.006319 0.000596 0
0.005293 0.000494 0
0.004411 0.000431 0
0.003620 0.000396 0
0.002887 0.000377 0
0.002194 0.000360 0
0.001545 0.000333 0
0.000963 0.000285 0
0.000486 0.000207 0
0.000157 0.000103 0
0.000003 0.000004 0
0.000000 -0.000000 0
0.000000 0.000000 0
-0.003789 0.007212 0
-0.012742 0.012415 0
-0.023933 0.013643 0
-0.034562 0.011459 0
-0.042852 0.007465 0
-0.048064 0.002944 0
-0.050057 -0.001534 0
-0.048940 -0.005864 0
-0.044820 -0.010045 0
-0.037818 -0.014019 0
-0.028086 -0.017641 0
-0.015821 -0.020669 0
-0.001313 -0.022759 0
0.014967 -0.023724 0
0.032354 -0.023496 0
0.050050 -0.021991 0
0.067234 -0.019282 0
0.083019 -0.015546 0
0.096481 -0.011084 0
0.106879 -0.006298 0
0.113654 -0.001594 0
0.116568 0.002657 0
0.115812 0.006246 0
0.111962 0.009114 0
0.105666 0.011248 0
0.097592 0.012655 0
0.088376 0.013366 0
0.078600 0.013439 0
0.068771 0.012962 0
0.059302 0.012050 0
0.050503 0.010835 0
0.042579 0.009451 0
0.035637 0.008023 0
0.029699 0.006650 0
0.024720 0.005408 0
0.020606 0.004339 0
0.017234 0.003462 0
0.014471 0.002776 0
0.012184 0.002267 0
0.010253 0.001909 0
0.008574 0.001673 0
0.007067 0.001524 0
0.005677 0.001427 0
0.004378 0.001342 0
0.003171 0.001230 0
0.002086 0.001059 0
0.001176 0.000807 0
0.000500 0.000484 0
0.000107 0.000157 0
0.000000 0.000000 0
0.000000 -0.000000 0
-0.004986 0.014687 0
-0.016211 0.024007 0
-0.030052 0.026161 0
-0.043403 0.022457 0
-0.054354 0.015603 0
-0.062104 0.007737 0
-0.066484 -0.000111 0
-0.067597 -0.007677 0
-0.065639 -0.014956 0
-0.060774 -0.021879 0
-0.053149 -0.028282 0
-0.042917 -0.033904 0
-0.030224 -0.038411 0
-0.015199 -0.041389 0
0.001824 -0.042463 0
0.020429 -0.041485 0
0.039994 -0.038433 0
0.059622 -0.033310 0
0.078296 -0.026395 0
0.094986 -0.018200 0
0.108518 -0.009343 0
0.117935 -0.000619 0
0.122723 0.007144 0
0.122866 0.013472 0
0.119182 0.018274 0
0.112597 0.021560 0
0.104001 0.023420 0
0.094203 0.023996 0
0.083901 0.023480 0
0.073652 0.022106 0
0.063875 0.020126 0
0.054858 0.017787 0
0.046774 0.015315 0
0.039696 0.012895 0
0.033612 0.010666 0
0.028455 0.008716 0
0.024117 0.007091 0
0.020469 0.005796 0
0.017376 0.004814 0
0.014711 0.004105 0
0.012362 0.003618 0
0.010242 0.003293 0
0.008286 0.003066 0
0.006462 0.002866 0
0.004768 0.002625 0
0.003234 0.002280 0
0.001916 0.001794 0
0.000890 0.001172 0
0.000231 0.000504 0
0.000000 0.000000 0
0.000000 -0.000001 0
-0.005544 0.023421 0
-0.018010 0.037481 0
-0.033478 0.040837 0
-0.048729 0.035763 0
-0.061806 0.026166 0
-0.071898 0.015073 0
-0.078844 0.003958 0
-0.082732 -0.006709 0
-0.083796 -0.016867 0
-0.082242 -0.026509 0
-0.078210 -0.035499 0
-0.071803 -0.043595 0
-0.063096 -0.050478 0
-0.052141 -0.055773 0
-0.038932 -0.059123 0
-0.023499 -0.060161 0
-0.006063 -0.058476 0
0.012984 -0.053848 0
0.033130 -0.046449 0
0.053387 -0.036520 0
0.072427 -0.024543 0
0.088922 -0.011548 0
0.101630 0.001314 0
0.109277 0.012655 0
0.111623 0.021517 0
0.109719 0.027836 0
0.104615 0.031760 0
0.097349 0.033539 0
0.088822 0.033513 0
0.079740 0.032077 0
0.070647 0.029629 0
0.061936 0.026551 0
0.053863 0.023185 0
0.046575 0.019813 0
0.040123 0.016648 0
0.034495 0.013833 0
0.029624 0.011448 0
0.025414 0.009518 0
0.021757 0.008025 0
0.018541 0.006922 0
0.015666 0.006142 0
0.013047 0.005601 0
0.010623 0.005206 0
0.008360 0.004859 0
0.006250 0.004458 0
0.004322 0.003911 0
0.002632 0.003151 0
0.001272 0.002169 0
0.000352 0.001047 0
0.000000 0.000000 0
0.000000 -0.000001 0
-0.005659 0.032695 0
-0.018562 0.051943 0
-0.034861 0.056882 0
-0.051371 0.050785 0
-0.066107 0.038771 0
-0.078224 0.024775 0
-0.087553 0.010724 0
-0.094185 -0.002725 0
-0.098281 -0.015446 0
-0.100079 -0.027466 0
-0.099729 -0.038722 0
-0.097313 -0.049019 0
-0.092865 -0.058073 0
-0.086385 -0.065553 0
-0.077832 -0.071105 0
-0.067173 -0.074354 0
-0.054347 -0.074916 0
-0.039260 -0.072504 0
-0.021963 -0.066798 0
-0.002886 -0.057497 0
0.017397 -0.044879 0
0.037966 -0.029822 0
0.057248 -0.013211 0
0.073319 0.003479 0
0.084438 0.017832 0
0.090069 0.028568 0
0.091096 0.035789 0
0.088747 0.039788 0
0.084092 0.041089 0
0.077973 0.040282 0
0.071080 0.037931 0
0.063940 0.034571 0
0.056922 0.030676 0
0.050269 0.026635 0
0.044126 0.022746 0
0.038558 0.019216 0
0.033571 0.016171 0
0.029123 0.013663 0
0.025152 0.011687 0
0.021583 0.010196 0
0.018339 0.009112 0
0.015354 0.008335 0
0.012576 0.007753 0
0.009972 0.007239 0
0.007534 0.006663 0
0.005283 0.005898 0
0.003278 0.004843 0
0.001622 0.003452 0
0.000464 0.001775 0
0.000000 0.000000 0
0.000000 -0.000000 0
-0.005472 0.041983 0
-0.018203 0.066686 0
-0.034687 0.073647 0
-0.051910 0.067007 0
-0.067867 0.053018 0
-0.081637 0.036520 0
-0.093011 0.019919 0
-0.102057 0.004019 0
-0.108892 -0.010973 0
-0.113681 -0.025061 0
-0.116620 -0.038267 0
-0.117795 -0.050461 0
-0.117233 -0.061405 0
-0.114921 -0.070806 0
-0.110811 -0.078335 0
-0.104830 -0.083647 0
-0.096866 -0.086389 0
-0.086778 -0.086231 0
-0.074475 -0.082823 0
-0.059798 -0.075880 0
-0.042603 -0.065396 0
-0.023170 -0.051400 0
-0.002360 -0.034038 0
0.018714 -0.014535 0
0.038308 0.004766 0
0.053619 0.021178 0
0.063020 0.033083 0
0.067844 0.040542 0
0.069131 0.044287 0
0.067761 0.045089 0
0.064596 0.043662 0
0.060316 0.040710 0
0.055417 0.036857 0
0.050273 0.032609 0
0.045147 0.028358 0
0.040211 0.024389 0
0.035563 0.020884 0
0.031242 0.017936 0
0.027249 0.015565 0
0.023563 0.013736 0
0.020148 0.012370 0
0.016966 0.011363 0
0.013980 0.010588 0
0.011166 0.009902 0
0.008516 0.009148 0
0.006045 0.008166 0
0.003811 0.006812 0
0.001924 0.004982 0
0.000566 0.002669 0
0.000000 0.000000 0
0.000000 0.000000 0
-0.005083 0.050899 0
-0.017191 0.081159 0
-0.033335 0.090588 0
-0.050793 0.083963 0
-0.067560 0.068498 0
-0.082606 0.049919 0
-0.095641 0.031144 0
-0.106708 0.013156 0
-0.115914 -0.003824 0
-0.123320 -0.019739 0
-0.129119 -0.034609 0
-0.133433 -0.048406 0
-0.136300 -0.060946 0
-0.137703 -0.071974 0
-0.137593 -0.081196 0
-0.135886 -0.088299 0
-0.132462 -0.092968 0
-0.127168 -0.094895 0
-0.119821 -0.093779 0
-0.110165 -0.089369 0
-0.097938 -0.081507 0
-0.083030 -0.070066 0
-0.065322 -0.055096 0
-0.044839 -0.037190 0
-0.022467 -0.017073 0
-0.000231 0.003856 0
0.019008 0.021564 0
0.033086 0.033677 0
0.042310 0.041172 0
0.047511 0.044816 0
0.049718 0.045376 0
0.049720 0.043750 0
0.048140 0.040719 0
0.045505 0.036906 0
0.042227 0.032808 0
0.038612 0.028800 0
0.034869 0.025141 0
0.031139 0.021976 0
0.027511 0.019365 0
0.024030 0.017297 0
0.020717 0.015709 0
0.017571 0.014504 0
0.014584 0.013553 0
0.011745 0.012704 0
0.009048 0.011784 0
0.006507 0.010603 0
0.004170 0.008965 0
0.002149 0.006697 0
0.000651 0.003699 0
0.000000 0.000000 0
0.000000 0.000001 0
-0.004567 0.059174 0
-0.015729 0.094938 0
-0.031115 0.107248 0
-0.048390 0.101231 0
-0.065590 0.084831 0
-0.081556 0.064601 0
-0.095893 0.044022 0
-0.108606 0.024292 0
-0.119800 0.005637 0
-0.129532 -0.011857 0
-0.137851 -0.028154 0
-0.144929 -0.043280 0
-0.150827 -0.057135 0
-0.155532 -0.069512 0
-0.158987 -0.080153 0
-0.161096 -0.088778 0
-0.161734 -0.095107 0
-0.160739 -0.098873 0
-0.157912 -0.099827 0
-0.152996 -0.097764 0
-0.145706 -0.092531 0
-0.135742 -0.084016 0
-0.122746 -0.072230 0
-0.106448 -0.057390 0
-0.086966 -0.039842 0
-0.064541 -0.020298 0
-0.040265 -0.000233 0
-0.017656 0.017240 0
0.000751 0.029862 0
0.014405 0.037681 0
0.023899 0.041452 0
0.029829 0.042287 0
0.033001 0.041072 0
0.034119 0.038522 0
0.033755 0.035251 0
0.032364 0.031747 0
0.030290 0.028356 0
0.027797 0.025294 0
0.025079 0.022675 0
0.022270 0.020530 0
0.019457 0.018830 0
0.016694 0.017496 0
0.014009 0.016415 0
0.011413 0.015438 0
0.008911 0.014386 0
0.006514 0.013044 0
0.004260 0.011169 0
0.002253 0.008502 0
0.000707 0.004818 0
0.000000 0.000000 0
0.000000 0.000001 0
-0.003980 0.066629 0
-0.013984 0.107707 0
-0.028289 0.123248 0
-0.045017 0.118437 0
-0.062307 0.101665 0
-0.078873 0.080222 0
-0.094187 0.058194 0
-0.108209 0.037062 0
-0.121047 0.017101 0
-0.132790 -0.001688 0
-0.143394 -0.019212 0
-0.152939 -0.035429 0
-0.161537 -0.050343 0
-0.169185 -0.063815 0
-0.175817 -0.075632 0
-0.181321 -0.085552 0
-0.185552 -0.093325 0
-0.188333 -0.098718 0
-0.189458 -0.101522 0
-0.188686 -0.101575 0
-0.185742 -0.098762 0
-0.180316 -0.093026 0
-0.172050 -0.084390 0
-0.160595 -0.072970 0
-0.145693 -0.058980 0
-0.127153 -0.042845 0
-0.105134 -0.025321 0
-0.080501 -0.007339 0
-0.055989 0.009111 0
-0.033991 0.021668 0
-0.016244 0.029953 0
-0.002835 0.034647 0
0.006814 0.036429 0
0.013309 0.036152 0
0.017288 0.034562 0
0.019357 0.032265 0
0.020020 0.029707 0
0.019688 0.027187 0
0.018677 0.024893 0
0.017226 0.022919 0
0.015508 0.021285 0
0.013642 0.019952 0
0.011707 0.018834 0
0.009747 0.017802 0
0.007788 0.016684 0
0.005841 0.015254 0
0.003938 0.013225 0
0.002162 0.010250 0
0.000714 0.005952 0
0.000000 0.000000 0
0.000000 0.000001 0
-0.003366 0.073158 0
-0.012090 0.119246 0
-0.025078 0.138281 0
-0.040952 0.135250 0
-0.058020 0.118687 0
-0.074897 0.096481 0
-0.090907 0.073356 0
-0.105937 0.051151 0
-0.120100 0.030218 0
-0.133501 0.010491 0
-0.146154 -0.008004 0
-0.157945 -0.025137 0
-0.168960 -0.040889 0
-0.179230 -0.055232 0
-0.188688 -0.068017 0
-0.197204 -0.079043 0
-0.204609 -0.088096 0
-0.210700 -0.094967 0
-0.215251 -0.099475 0
-0.218016 -0.101481 0
-0.218736 -0.100900 0
-0.217133 -0.097708 0
-0.212910 -0.091952 0
-0.205767 -0.083747 0
-0.195411 -0.073284 0
-0.181580 -0.060857 0
-0.164169 -0.046885 0
-0.143384 -0.031904 0
-0.119714 -0.016648 0
-0.094933 -0.002065 0
-0.071333 0.010295 0
-0.050504 0.019229 0
-0.033455 0.024928 0
-0.020220 0.028049 0
-0.010336 0.029203 0
-0.003241 0.029014 0
0.001604 0.028025 0
0.004721 0.026638 0
0.006554 0.025136 0
0.007455 0.023699 0
0.007689 0.022414 0
0.007464 0.021298 0
0.006925 0.020309 0
0.006168 0.019357 0
0.005244 0.018292 0
0.004182 0.016894 0
0.003004 0.014848 0
0.001767 0.011726 0
0.000636 0.006981 0
0.000000 0.000000 0
0.000000 0.000001 0
-0.002757 0.078719 0
-0.010156 0.129419 0
-0.021671 0.152109 0
-0.036436 0.151380 0
-0.053004 0.135611 0
-0.069932 0.113108 0
-0.086385 0.089233 0
-0.102155 0.066254 0
-0.117336 0.044666 0
-0.132066 0.024367 0
-0.146408 0.005233 0
-0.160258 -0.012623 0
-0.173453 -0.029058 0
-0.186050 -0.044087 0
-0.198002 -0.057659 0
-0.209173 -0.069631 0
-0.219372 -0.079830 0
-0.228368 -0.088076 0
-0.235906 -0.094206 0
-0.241717 -0.098090 0
-0.245532 -0.099645 0
-0.247092 -0.098852 0
-0.246151 -0.095756 0
-0.242481 -0.090469 0
-0.235876 -0.083168 0
-0.226162 -0.074087 0
-0.213239 -0.063517 0
-0.197124 -0.051794 0
-0.177990 -0.039341 0
-0.156295 -0.026713 0
-0.132828 -0.014476 0
-0.109251 -0.003230 0
-0.087135 0.006146 0
-0.067515 0.013033 0
-0.051001 0.017583 0
-0.037728 0.020324 0
-0.027327 0.021745 0
-0.019327 0.022237 0
-0.013270 0.022159 0
-0.008748 0.021783 0
-0.005421 0.021276 0
-0.002997 0.020716 0
-0.001253 0.020130 0
-0.000036 0.019483 0
0.000749 0.018670 0
0.001156 0.017494 0
0.001209 0.015640 0
0.000932 0.012619 0
0.000424 0.007720 0
0.000000 0.000000 0
0.000000 0.000001 0
-0.002177 0.083315 0
-0.008266 0.138160 0
-0.018223 0.164561 0
-0.031683 0.166583 0
-0.047501 0.152181 0
-0.064240 0.129861 0
-0.080915 0.105579 0
-0.097188 0.082102 0
-0.113117 0.060131 0
-0.128854 0.039563 0
-0.144491 0.020188 0
-0.160021 0.001908 0
-0.175225 -0.015097 0
-0.189890 -0.030683 0
-0.204023 -0.044894 0
-0.217503 -0.057673 0
-0.230135 -0.068900 0
-0.241671 -0.078432 0
-0.251827 -0.086126 0
-0.260305 -0.091855 0
-0.266809 -0.095524 0
-0.271068 -0.097089 0
-0.272848 -0.096563 0
-0.271964 -0.094023 0
-0.268281 -0.089603 0
-0.261720 -0.083494 0
-0.252261 -0.075924 0
-0.239945 -0.067153 0
-0.224882 -0.057477 0
-0.207296 -0.047227 0
-0.187594 -0.036748 0
-0.166301 -0.026465 0
-0.144137 -0.016808 0
-0.122235 -0.008084 0
-0.101671 -0.000584 0
-0.083123 0.005340 0
-0.066936 0.009625 0
-0.053209 0.012580 0
-0.041831 0.014557 0
-0.032524 0.015850 0
-0.024928 0.016662 0
-0.018725 0.017130 0
-0.013660 0.017349 0
-0.009535 0.017354 0
-0.006214 0.017100 0
-0.003614 0.016435 0
-0.001701 0.015073 0
-0.000490 0.012511 0
0.000024 0.007912 0
0.000000 0.000000 0
0.000000 0.000001 0
-0.001643 0.086985 0
-0.006480 0.145465 0
-0.014862 0.175527 0
-0.026875 0.180657 0
-0.041724 0.168167 0
-0.058054 0.146521 0
-0.074748 0.122181 0
-0.091321 0.098457 0
-0.107760 0.076332 0
-0.124211 0.055741 0
-0.140792 0.036400 0
-0.157521 0.018111 0
-0.174321 0.000811 0
-0.190874 -0.015289 0
-0.206916 -0.030046 0
-0.222378 -0.043519 0
-0.237089 -0.055662 0
-0.250810 -0.066384 0
-0.263247 -0.075573 0
-0.274078 -0.083108 0
-0.282979 -0.088882 0
-0.289648 -0.092812 0
-0.293830 -0.094859 0
-0.295333 -0.095037 0
-0.294037 -0.093412 0
-0.289905 -0.090107 0
-0.282972 -0.085291 0
-0.273339 -0.079173 0
-0.261162 -0.071990 0
-0.246651 -0.064001 0
-0.230074 -0.055472 0
-0.211747 -0.046687 0
-0.192116 -0.037920 0
-0.171689 -0.029434 0
-0.150986 -0.021528 0
-0.130584 -0.014411 0
-0.111188 -0.008170 0
-0.093303 -0.002867 0
-0.077187 0.001474 0
-0.062909 0.004881 0
-0.050423 0.007477 0
-0.039622 0.009448 0
-0.030359 0.010940 0
-0.022477 0.012037 0
-0.015814 0.012748 0
-0.010277 0.012982 0
-0.005842 0.012517 0
-0.002574 0.010893 0
-0.000598 0.007230 0
0.000000 -0.000000 0
0.000000 0.000001 0
-0.001164 0.089795 0
-0.004843 0.151379 0
-0.011684 0.184956 0
-0.022164 0.193445 0
-0.035862 0.183360 0
-0.051574 0.162885 0
-0.068100 0.138847 0
-0.084791 0.115114 0
-0.101533 0.093021 0
-0.118443 0.072595 0
-0.135649 0.053498 0
-0.153194 0.035437 0
-0.171024 0.018255 0
-0.188999 0.001912 0
-0.206733 -0.013390 0
-0.223911 -0.027500 0
-0.240370 -0.040468 0
-0.255922 -0.052274 0
-0.270300 -0.062858 0
-0.283184 -0.072123 0
-0.294232 -0.079954 0
-0.303112 -0.086237 0
-0.309528 -0.090879 0
-0.313247 -0.093816 0
-0.314116 -0.095031 0
-0.312076 -0.094559 0
-0.307158 -0.092489 0
-0.299479 -0.088962 0
-0.289230 -0.084165 0
-0.276656 -0.078315 0
-0.262035 -0.071652 0
-0.245671 -0.064423 0
-0.227894 -0.056866 0
-0.209036 -0.049214 0
-0.189456 -0.041688 0
-0.169572 -0.034457 0
-0.149769 -0.027657 0
-0.130403 -0.021422 0
-0.111792 -0.015837 0
-0.094228 -0.010914 0
-0.077956 -0.006625 0
-0.063114 -0.002934 0
-0.049747 0.000204 0
-0.037848 0.002810 0
-0.027401 0.004899 0
-0.018415 0.006462 0
-0.010966 0.007371 0
-0.005205 0.007267 0
-0.001412 0.005338 0
0.000000 -0.000000 0
0.000000 0.000001 0
-0.000745 0.091828 0
-0.003381 0.155985 0
-0.008760 0.192847 0
-0.017673 0.204833 0
-0.030072 0.197577 0
-0.044975 0.178760 0
-0.061150 0.155399 0
-0.077794 0.131891 0
-0.094657 0.109984 0
-0.111805 0.089857 0
-0.129358 0.071150 0
-0.147375 0.053486 0
-0.165824 0.036616 0
-0.184591 0.020420 0
-0.203488 0.004866 0
-0.222102 -0.009882 0
-0.240067 -0.023651 0
-0.257122 -0.036453 0
-0.273095 -0.048310 0
-0.287709 -0.059176 0
-0.300635 -0.068954 0
-0.311526 -0.077516 0
-0.320050 -0.084725 0
-0.325919 -0.090448 0
-0.328917 -0.094583 0
-0.328917 -0.097066 0
-0.325894 -0.097888 0
-0.319925 -0.097100 0
-0.311183 -0.094814 0
-0.299919 -0.091196 0
-0.286438 -0.086456 0
-0.271078 -0.080828 0
-0.254185 -0.074555 0
-0.236097 -0.067871 0
-0.217141 -0.060993 0
-0.197633 -0.054098 0
-0.177853 -0.047339 0
-0.158071 -0.040843 0
-0.138557 -0.034700 0
-0.119560 -0.028956 0
-0.101295 -0.023637 0
-0.083944 -0.018760 0
-0.067662 -0.014326 0
-0.052589 -0.010309 0
-0.038889 -0.006685 0
-0.026730 -0.003453 0
-0.016332 -0.000693 0
-0.008014 0.001339 0
-0.002297 0.002025 0
0.000000 -0.000001 0
0.000000 0.000001 0
-0.000390 0.093176 0
-0.002107 0.159394 0
-0.006136 0.199247 0
-0.013497 0.214755 0
-0.024489 0.210661 0
-0.038406 0.193964 0
-0.054052 0.171666 0
-0.070486 0.148622 0
-0.087310 0.127033 0
-0.104503 0.107295 0
-0.122163 0.089067 0
-0.140354 0.071903 0
-0.159061 0.055471 0
-0.178192 0.039577 0
-0.197590 0.024122 0
-0.217042 0.009079 0
-0.236148 -0.005448 0
-0.254497 -0.019246 0
-0.271744 -0.032271 0
-0.287744 -0.044583 0
-0.302230 -0.056136 0
-0.314880 -0.066822 0
-0.325343 -0.076486 0
-0.333285 -0.084949 0
-0.338418 -0.092034 0
-0.340530 -0.097582 0
-0.339505 -0.101481 0
-0.335335 -0.103673 0
-0.328125 -0.104171 0
-0.318082 -0.103060 0
-0.305503 -0.100493 0
-0.290743 -0.096675 0
-0.274189 -0.091847 0
-0.256230 -0.086259 0
-0.237234 -0.080153 0
-0.217539 -0.073745 0
-0.197433 -0.067218 0
-0.177172 -0.060718 0
-0.156985 -0.054348 0
-0.137074 -0.048175 0
-0.117618 -0.042241 0
-0.098787 -0.036567 0
-0.080757 -0.031151 0
-0.063713 -0.025963 0
-0.047858 -0.020960 0
-0.033438 -0.016095 0
-0.020785 -0.011345 0
-0.010397 -0.006767 0
-0.003060 -0.002676 0
0.000000 -0.000001 0
0.000000 0.000001 0
-0.000098 0.093935 0
-0.001026 0.161731 0
-0.003834 0.204236 0
-0.009699 0.223186 0
-0.019221 0.222486 0
-0.031994 0.208323 0
-0.046932 0.187480 0
-0.062997 0.165149 0
-0.079629 0.144000 0
-0.096698 0.124710 0
-0.114260 0.107002 0
-0.132373 0.090384 0
-0.151031 0.074454 0
-0.170159 0.058950 0
-0.189630 0.043717 0
-0.209265 0.028676 0
-0.228842 0.013804 0
-0.248015 -0.000857 0
-0.266332 -0.015062 0
-0.283416 -0.028689 0
-0.299113 -0.041818 0
-0.313195 -0.054403 0
-0.325341 -0.066319 0
-0.335196 -0.077374 0
-0.342414 -0.087338 0
-0.346700 -0.095978 0
-0.347834 -0.103082 0
-0.345698 -0.108480 0
-0.340290 -0.112067 0
-0.331730 -0.113818 0
-0.320258 -0.113795 0
-0.306206 -0.112142 0
-0.289976 -0.109068 0
-0.272001 -0.104826 0
-0.252710 -0.099684 0
-0.232507 -0.093900 0
-0.211743 -0.087706 0
-0.190721 -0.081291 0
-0.169691 -0.074798 0
-0.148861 -0.068323 0
-0.128406 -0.061924 0
-0.108488 -0.055621 0
-0.089270 -0.049400 0
-0.070932 -0.043208 0
-0.053687 -0.036960 0
-0.037811 -0.030526 0
-0.023702 -0.023734 0
-0.011963 -0.016385 0
-0.003555 -0.008373 0
0.000000 -0.000001 0
0.000000 0.000001 0
0.000140 0.094202 0
-0.000136 0.163129 0
-0.001862 0.207920 0
-0.006320 0.230142 0
-0.014346 0.232956 0
-0.025845 0.221676 0
-0.039901 0.202669 0
-0.055430 0.181318 0
-0.071722 0.160734 0
-0.088516 0.141927 0
-0.105802 0.124742 0
-0.123622 0.108673 0
-0.141973 0.093258 0
-0.160797 0.078176 0
-0.179984 0.063228 0
-0.199391 0.048291 0
-0.218840 0.033302 0
-0.238115 0.018244 0
-0.256946 0.003131 0
-0.274851 -0.011801 0
-0.291459 -0.026357 0
-0.306601 -0.040594 0
-0.320081 -0.054485 0
-0.331576 -0.067876 0
-0.340717 -0.080529 0
-0.347143 -0.092162 0
-0.350541 -0.102482 0
-0.350675 -0.111217 0
-0.347414 -0.118139 0