# vtk DataFile Version 2.0
generated by CFD-lab course output (written by Tobias Neckel) 
ASCII

DATASET STRUCTURED_GRID
DIMENSIONS  51 51 1 
POINTS 2601 float

0.000000 0.000000 0
0.020000 0.000000 0
0.040000 0.000000 0
0.060000 0.000000 0
0.080000 0.000000 0
0.100000 0.000000 0
0.120000 0.000000 0
0.140000 0.000000 0
0.160000 0.000000 0
0.180000 0.000000 0
0.200000 0.000000 0
0.220000 0.000000 0
0.240000 0.000000 0
0.260000 0.000000 0
0.280000 0.000000 0
0.300000 0.000000 0
0.320000 0.000000 0
0.340000 0.000000 0
0.360000 0.000000 0
0.380000 0.000000 0
0.400000 0.000000 0
0.420000 0.000000 0
0.440000 0.000000 0
0.460000 0.000000 0
0.480000 0.000000 0
0.500000 0.000000 0
0.520000 0.000000 0
0.540000 0.000000 0
0.560000 0.000000 0
0.580000 0.000000 0
0.600000 0.000000 0
0.620000 0.000000 0
0.640000 0.000000 0
0.660000 0.000000 0
0.680000 0.000000 0
0.700000 0.000000 0
0.720000 0.000000 0
0.740000 0.000000 0
0.760000 0.000000 0
0.780000 0.000000 0
0.800000 0.000000 0
0.820000 0.000000 0
0.840000 0.000000 0
0.860000 0.000000 0
0.880000 0.000000 0
0.900000 0.000000 0
0.920000 0.000000 0
0.940000 0.000000 0
0.960000 0.000000 0
0.980000 0.000000 0
1.000000 0.000000 0
0.000000 0.020000 0
0.020000 0.020000 0
0.040000 0.020000 0
0.060000 0.020000 0
0.080000 0.020000 0
0.100000 0.020000 0
0.120000 0.020000 0
0.140000 0.020000 0
0.160000 0.020000 0
0.180000 0.020000 0
0.200000 0.020000 0
0.220000 0.020000 0
0.240000 0.020000 0
0.260000 0.020000 0
0.280000 0.020000 0
0.300000 0.020000 0
0.320000 0.020000 0
0.340000 0.020000 0
0.360000 0.020000 0
0.380000 0.020000 0
0.400000 0.020000 0
0.420000 0.020000 0
0.440000 0.020000 0
0.460000 0.020000 0
0.480000 0.020000 0
0.500000 0.020000 0
0.520000 0.020000 0
0.540000 0.020000 0
0.560000 0.020000 0
0.580000 0.020000 0
0.600000 0.020000 0
0.620000 0.020000 0
0.640000 0.020000 0
0.660000 0.020000 0
0.680000 0.020000 0
0.700000 0.020000 0
0.720000 0.020000 0
0.740000 0.020000 0
0.760000 0.020000 0
0.780000 0.020000 0
0.800000 0.020000 0
0.820000 0.020000 0
0.840000 0.020000 0
0.860000 0.020000 0
0.880000 0.020000 0
0.900000 0.020000 0
0.920000 0.020000 0
0.940000 0.020000 0
0.960000 0.020000 0
0.980000 0.020000 0
1.000000 0.020000 0
0.000000 0.040000 0
0.020000 0.040000 0
0.040000 0.040000 0
0.060000 0.040000 0
0.080000 0.040000 0
0.100000 0.040000 0
0.120000 0.040000 0
0.140000 0.040000 0
0.160000 0.040000 0
0.180000 0.040000 0
0.200000 0.040000 0
0.220000 0.040000 0
0.240000 0.040000 0
0.260000 0.040000 0
0.280000 0.040000 0
0.300000 0.040000 0
0.320000 0.040000 0
0.340000 0.040000 0
0.360000 0.040000 0
0.380000 0.040000 0
0.400000 0.040000 0
0.420000 0.040000 0
0.440000 0.040000 0
0.460000 0.040000 0
0.480000 0.040000 0
0.500000 0.040000 0
0.520000 0.040000 0
0.540000 0.040000 0
0.560000 0.040000 0
0.580000 0.040000 0
0.600000 0.040000 0
0.620000 0.040000 0
0.640000 0.040000 0
0.660000 0.040000 0
0.680000 0.040000 0
0.700000 0.040000 0
0.720000 0.040000 0
0.740000 0.040000 0
0.760000 0.040000 0
0.780000 0.040000 0
0.800000 0.040000 0
0.820000 0.040000 0
0.840000 0.040000 0
0.860000 0.040000 0
0.880000 0.040000 0
0.900000 0.040000 0
0.920000 0.040000 0
0.940000 0.040000 0
0.960000 0.040000 0
0.980000 0.040000 0
1.000000 0.040000 0
0.000000 0.060000 0
0.020000 0.060000 0
0.040000 0.060000 0
0.060000 0.060000 0
0.080000 0.060000 0
0.100000 0.060000 0
0.120000 0.060000 0
0.140000 0.060000 0
0.160000 0.060000 0
0.180000 0.060000 0
0.200000 0.060000 0
0.220000 0.060000 0
0.240000 0.060000 0
0.260000 0.060000 0
0.280000 0.060000 0
0.300000 0.060000 0
0.320000 0.060000 0
0.340000 0.060000 0
0.360000 0.060000 0
0.380000 0.060000 0
0.400000 0.060000 0
0.420000 0.060000 0
0.440000 0.060000 0
0.460000 0.060000 0
0.480000 0.060000 0
0.500000 0.060000 0
0.520000 0.060000 0
0.540000 0.060000 0
0.560000 0.060000 0
0.580000 0.060000 0
0.600000 0.060000 0
0.620000 0.060000 0
0.640000 0.060000 0
0.660000 0.060000 0
0.680000 0.060000 0
0.700000 0.060000 0
0.720000 0.060000 0
0.740000 0.060000 0
0.760000 0.060000 0
0.780000 0.060000 0
0.800000 0.060000 0
0.820000 0.060000 0
0.840000 0.060000 0
0.860000 0.060000 0
0.880000 0.060000 0
0.900000 0.060000 0
0.920000 0.060000 0
0.940000 0.060000 0
0.960000 0.060000 0
0.980000 0.060000 0
1.000000 0.060000 0
0.000000 0.080000 0
0.020000 0.080000 0
0.040000 0.080000 0
0.060000 0.080000 0
0.080000 0.080000 0
0.100000 0.080000 0
0.120000 0.080000 0
0.140000 0.080000 0
0.160000 0.080000 0
0.180000 0.080000 0
0.200000 0.080000 0
0.220000 0.080000 0
0.240000 0.080000 0
0.260000 0.080000 0
0.280000 0.080000 0
0.300000 0.080000 0
0.320000 0.080000 0
0.340000 0.080000 0
0.360000 0.080000 0
0.380000 0.080000 0
0.400000 0.080000 0
0.420000 0.080000 0
0.440000 0.080000 0
0.460000 0.080000 0
0.480000 0.080000 0
0.500000 0.080000 0
0.520000 0.080000 0
0.540000 0.080000 0
0.560000 0.080000 0
0.580000 0.080000 0
0.600000 0.080000 0
0.620000 0.080000 0
0.640000 0.080000 0
0.660000 0.080000 0
0.680000 0.080000 0
0.700000 0.080000 0
0.720000 0.080000 0
0.740000 0.080000 0
0.760000 0.080000 0
0.780000 0.080000 0
0.800000 0.080000 0
0.820000 0.080000 0
0.840000 0.080000 0
0.860000 0.080000 0
0.880000 0.080000 0
0.900000 0.080000 0
0.920000 0.080000 0
0.940000 0.080000 0
0.960000 0.080000 0
0.980000 0.080000 0
1.000000 0.080000 0
0.000000 0.100000 0
0.020000 0.100000 0
0.040000 0.100000 0
0.060000 0.100000 0
0.080000 0.100000 0
0.100000 0.100000 0
0.120000 0.100000 0
0.140000 0.100000 0
0.160000 0.100000 0
0.180000 0.100000 0
0.200000 0.100000 0
0.220000 0.100000 0
0.240000 0.100000 0
0.260000 0.100000 0
0.280000 0.100000 0
0.300000 0.100000 0
0.320000 0.100000 0
0.340000 0.100000 0
0.360000 0.100000 0
0.380000 0.100000 0
0.400000 0.100000 0
0.420000 0.100000 0
0.440000 0.100000 0
0.460000 0.100000 0
0.480000 0.100000 0
0.500000 0.100000 0
0.520000 0.100000 0
0.540000 0.100000 0
0.560000 0.100000 0
0.580000 0.100000 0
0.600000 0.100000 0
0.620000 0.100000 0
0.640000 0.100000 0
0.660000 0.100000 0
0.680000 0.100000 0
0.700000 0.100000 0
0.720000 0.100000 0
0.740000 0.100000 0
0.760000 0.100000 0
0.780000 0.100000 0
0.800000 0.100000 0
0.820000 0.100000 0
0.840000 0.100000 0
0.860000 0.100000 0
0.880000 0.100000 0
0.900000 0.100000 0
0.920000 0.100000 0
0.940000 0.100000 0
0.960000 0.100000 0
0.980000 0.100000 0
1.000000 0.100000 0
0.000000 0.120000 0
0.020000 0.120000 0
0.040000 0.120000 0
0.060000 0.120000 0
0.080000 0.120000 0
0.100000 0.120000 0
0.120000 0.120000 0
0.140000 0.120000 0
0.160000 0.120000 0
0.180000 0.120000 0
0.200000 0.120000 0
0.220000 0.120000 0
0.240000 0.120000 0
0.260000 0.120000 0
0.280000 0.120000 0
0.300000 0.120000 0
0.320000 0.120000 0
0.340000 0.120000 0
0.360000 0.120000 0
0.380000 0.120000 0
0.400000 0.120000 0
0.420000 0.120000 0
0.440000 0.120000 0
0.460000 0.120000 0
0.480000 0.120000 0
0.500000 0.120000 0
0.520000 0.120000 0
0.540000 0.120000 0
0.560000 0.120000 0
0.580000 0.120000 0
0.600000 0.120000 0
0.620000 0.120000 0
0.640000 0.120000 0
0.660000 0.120000 0
0.680000 0.120000 0
0.700000 0.120000 0
0.720000 0.120000 0
0.740000 0.120000 0
0.760000 0.120000 0
0.780000 0.120000 0
0.800000 0.120000 0
0.820000 0.120000 0
0.840000 0.120000 0
0.860000 0.120000 0
0.880000 0.120000 0
0.900000 0.120000 0
0.920000 0.120000 0
0.940000 0.120000 0
0.960000 0.120000 0
0.980000 0.120000 0
1.000000 0.120000 0
0.000000 0.140000 0
0.020000 0.140000 0
0.040000 0.140000 0
0.060000 0.140000 0
0.080000 0.140000 0
0.100000 0.140000 0
0.120000 0.140000 0
0.140000 0.140000 0
0.160000 0.140000 0
0.180000 0.140000 0
0.200000 0.140000 0
0.220000 0.140000 0
0.240000 0.140000 0
0.260000 0.140000 0
0.280000 0.140000 0
0.300000 0.140000 0
0.320000 0.140000 0
0.340000 0.140000 0
0.360000 0.140000 0
0.380000 0.140000 0
0.400000 0.140000 0
0.420000 0.140000 0
0.440000 0.140000 0
0.460000 0.140000 0
0.480000 0.140000 0
0.500000 0.140000 0
0.520000 0.140000 0
0.540000 0.140000 0
0.560000 0.140000 0
0.580000 0.140000 0
0.600000 0.140000 0
0.620000 0.140000 0
0.640000 0.140000 0
0.660000 0.140000 0
0.680000 0.140000 0
0.700000 0.140000 0
0.720000 0.140000 0
0.740000 0.140000 0
0.760000 0.140000 0
0.780000 0.140000 0
0.800000 0.140000 0
0.820000 0.140000 0
0.840000 0.140000 0
0.860000 0.140000 0
0.880000 0.140000 0
0.900000 0.140000 0
0.920000 0.140000 0
0.940000 0.140000 0
0.960000 0.140000 0
0.980000 0.140000 0
1.000000 0.140000 0
0.000000 0.160000 0
0.020000 0.160000 0
0.040000 0.160000 0
0.060000 0.160000 0
0.080000 0.160000 0
0.100000 0.160000 0
0.120000 0.160000 0
0.140000 0.160000 0
0.160000 0.160000 0
0.180000 0.160000 0
0.200000 0.160000 0
0.220000 0.160000 0
0.240000 0.160000 0
0.260000 0.160000 0
0.280000 0.160000 0
0.300000 0.160000 0
0.320000 0.160000 0
0.340000 0.160000 0
0.360000 0.160000 0
0.380000 0.160000 0
0.400000 0.160000 0
0.420000 0.160000 0
0.440000 0.160000 0
0.460000 0.160000 0
0.480000 0.160000 0
0.500000 0.160000 0
0.520000 0.160000 0
0.540000 0.160000 0
0.560000 0.160000 0
0.580000 0.160000 0
0.600000 0.160000 0
0.620000 0.160000 0
0.640000 0.160000 0
0.660000 0.160000 0
0.680000 0.160000 0
0.700000 0.160000 0
0.720000 0.160000 0
0.740000 0.160000 0
0.760000 0.160000 0
0.780000 0.160000 0
0.800000 0.160000 0
0.820000 0.160000 0
0.840000 0.160000 0
0.860000 0.160000 0
0.880000 0.160000 0
0.900000 0.160000 0
0.920000 0.160000 0
0.940000 0.160000 0
0.960000 0.160000 0
0.980000 0.160000 0
1.000000 0.160000 0
0.000000 0.180000 0
0.020000 0.180000 0
0.040000 0.180000 0
0.060000 0.180000 0
0.080000 0.180000 0
0.100000 0.180000 0
0.120000 0.180000 0
0.140000 0.180000 0
0.160000 0.180000 0
0.180000 0.180000 0
0.200000 0.180000 0
0.220000 0.180000 0
0.240000 0.180000 0
0.260000 0.180000 0
0.280000 0.180000 0
0.300000 0.180000 0
0.320000 0.180000 0
0.340000 0.180000 0
0.360000 0.180000 0
0.380000 0.180000 0
0.400000 0.180000 0
0.420000 0.180000 0
0.440000 0.180000 0
0.460000 0.180000 0
0.480000 0.180000 0
0.500000 0.180000 0
0.520000 0.180000 0
0.540000 0.180000 0
0.560000 0.180000 0
0.580000 0.180000 0
0.600000 0.180000 0
0.620000 0.180000 0
[...]
POINT_DATA 2601 

VECTORS velocity float
0.000000 0.000000 0
-0.000001 0.000000 0
-0.000003 0.000000 0
-0.000005 0.000000 0
-0.000005 0.000000 0
-0.000002 0.000000 0
0.000002 0.000000 0
0.000009 0.000000 0
0.000016 0.000000 0
0.000024 0.000000 0
0.000031 0.000000 0
0.000039 0.000000 0
0.000045 0.000000 0
0.000051 0.000000 0
0.000055 0.000000 0
0.000057 0.000000 0
0.000058 0.000000 0
0.000058 0.000000 0
0.000056 0.000000 0
0.000053 0.000000 0
0.000050 0.000000 0
0.000046 0.000000 0
0.000041 0.000000 0
0.000036 0.000000 0
0.000030 0.000000 0
0.000024 0.000000 0
0.000018 0.000000 0
0.000012 0.000000 0
0.000007 0.000000 0
0.000001 0.000000 0
-0.000003 0.000000 0
-0.000007 0.000000 0
-0.000011 0.000000 0
-0.000013 0.000000 0
-0.000014 0.000000 0
-0.000015 0.000000 0
-0.000015 0.000000 0
-0.000015 0.000000 0
-0.000014 0.000000 0
-0.000013 0.000000 0
-0.000011 0.000000 0
-0.000010 0.000000 0
-0.000008 0.000000 0
-0.000007 0.000000 0
-0.000005 0.000000 0
-0.000004 0.000000 0
-0.000002 0.000000 0
-0.000001 0.000000 0
-0.000000 0.000000 0
0.000000 0.000000 0
0.000000 0.000000 0
0.000000 0.000001 0
-0.000655 0.000648 0
-0.002433 0.001199 0
-0.004608 0.001199 0
-0.006328 0.000655 0
-0.006906 -0.000254 0
-0.005949 -0.001317 0
-0.003334 -0.002355 0
0.000849 -0.003241 0
0.006357 -0.003911 0
0.012854 -0.004330 0
0.019953 -0.004483 0
0.027256 -0.004383 0
0.034379 -0.004064 0
0.040983 -0.003574 0
0.046795 -0.002967 0
0.051621 -0.002297 0
0.055352 -0.001612 0
0.057951 -0.000949 0
0.059446 -0.000340 0
0.059913 0.000207 0
0.059466 0.000692 0
0.058205 0.001120 0
0.056233 0.001492 0
0.053653 0.001811 0
0.050563 0.002075 0
0.047062 0.002283 0
0.043250 0.002433 0
0.039230 0.002521 0
0.035103 0.002547 0
0.030971 0.002511 0
0.026931 0.002416 0
0.023069 0.002271 0
0.019458 0.002085 0
0.016153 0.001871 0
0.013190 0.001642 0
0.010584 0.001411 0
0.008334 0.001190 0
0.006421 0.000986 0
0.004818 0.000805 0
0.003489 0.000649 0
0.002400 0.000516 0
0.001518 0.000402 0
0.000819 0.000302 0
0.000287 0.000207 0
-0.000084 0.000114 0
-0.000294 0.000021 0
-0.000349 -0.000065 0
-0.000270 -0.000123 0
-0.000116 -0.000116 0
0.000000 0.000000 0
0.000000 0.000003 0
-0.001376 0.002428 0
-0.004494 0.003950 0
-0.008198 0.003892 0
-0.011267 0.002296 0
-0.012705 -0.000382 0
-0.011915 -0.003575 0
-0.008674 -0.006800 0
-0.003032 -0.009693 0
0.004773 -0.012007 0
0.014330 -0.013598 0
0.025130 -0.014404 0
0.036630 -0.014427 0
0.048259 -0.013727 0
0.059463 -0.012416 0
0.069746 -0.010639 0
0.078693 -0.008557 0
0.086006 -0.006329 0
0.091508 -0.004093 0
0.095140 -0.001962 0
0.096945 -0.000019 0
0.097059 0.001710 0
0.095674 0.003233 0
0.092985 0.004552 0
0.089187 0.005671 0
0.084468 0.006592 0
0.079011 0.007314 0
0.072998 0.007833 0
0.066607 0.008148 0
0.060012 0.008259 0
0.053378 0.008172 0
0.046860 0.007902 0
0.040594 0.007473 0
0.034695 0.006916 0
0.029248 0.006269 0
0.024314 0.005569 0
0.019921 0.004856 0
0.016071 0.004163 0
0.012745 0.003516 0
0.009905 0.002932 0
0.007505 0.002418 0
0.005495 0.001971 0
0.003829 0.001581 0
0.002472 0.001231 0
0.001399 0.000902 0
0.000601 0.000581 0
0.000073 0.000265 0
-0.000195 -0.000024 0
-0.000235 -0.000233 0
-0.000123 -0.000270 0
0.000000 -0.000000 0
0.000000 0.000006 0
-0.001940 0.005138 0
-0.006204 0.008020 0
-0.011310 0.007972 0
-0.015825 0.005162 0
-0.018601 0.000393 0
-0.018939 -0.005349 0
-0.016578 -0.011238 0
-0.011531 -0.016689 0
-0.003959 -0.021273 0
0.005864 -0.024687 0
0.017545 -0.026783 0
0.030576 -0.027512 0
0.044398 -0.026898 0
0.058398 -0.025061 0
0.071946 -0.022197 0
0.084430 -0.018558 0
0.095318 -0.014426 0
0.104194 -0.010082 0
0.110791 -0.005777 0
0.114999 -0.001713 0
0.116846 0.001964 0
0.116520 0.005194 0
0.114303 0.007979 0
0.110478 0.010329 0
0.105323 0.012252 0
0.099110 0.013753 0
0.092095 0.014837 0
0.084528 0.015508 0
0.076642 0.015776 0
0.068652 0.015662 0
0.060755 0.015200 0
0.053118 0.014437 0
0.045883 0.013431 0
0.039154 0.012252 0
0.033005 0.010970 0
0.027475 0.009654 0
0.022572 0.008365 0
0.018280 0.007152 0
0.014561 0.006045 0
0.011366 0.005059 0
0.008644 0.004192 0
0.006344 0.003426 0
0.004427 0.002731 0
0.002866 0.002077 0
0.001647 0.001440 0
0.000767 0.000817 0
0.000214 0.000244 0
-0.000041 -0.000196 0
-0.000067 -0.000352 0
0.000000 -0.000001 0
0.000000 0.000011 0
-0.002372 0.008629 0
-0.007630 0.013319 0
-0.014083 0.013512 0
-0.020169 0.009586 0
-0.024656 0.002731 0
-0.026782 -0.005599 0
-0.026256 -0.014208 0
-0.023073 -0.022313 0
-0.017342 -0.029403 0
-0.009196 -0.035101 0
0.001189 -0.039115 0
0.013543 -0.041281 0
0.027454 -0.041549 0
0.042383 -0.039963 0
0.057729 -0.036671 0
0.072785 -0.031930 0
0.086842 -0.026092 0
0.099226 -0.019566 0
0.109387 -0.012767 0
0.116945 -0.006074 0
0.121714 0.000188 0
0.123698 0.005777 0
0.123146 0.010595 0
0.120427 0.014650 0
0.115909 0.017960 0
0.109953 0.020542 0
0.102902 0.022415 0
0.095078 0.023602 0
0.086777 0.024135 0
0.078265 0.024059 0
0.069776 0.023436 0
0.061506 0.022345 0
0.053614 0.020881 0
0.046221 0.019146 0
0.039410 0.017248 0
0.033229 0.015289 0
0.027692 0.013358 0
0.022790 0.011527 0
0.018489 0.009845 0
0.014745 0.008334 0
0.011507 0.006993 0
0.008726 0.005799 0
0.006362 0.004710 0
0.004388 0.003682 0
0.002792 0.002680 0
0.001570 0.001699 0
0.000717 0.000783 0
0.000215 0.000048 0
0.000010 -0.000311 0
0.000000 -0.000002 0
0.000000 0.000015 0
-0.002691 0.012765 0
-0.008761 0.019729 0
-0.016427 0.020510 0
-0.024070 0.015735 0
-0.030405 0.007005 0
-0.034618 -0.003750 0
-0.036356 -0.014948 0
-0.035593 -0.025603 0
-0.032399 -0.035150 0
-0.026847 -0.043218 0
-0.018986 -0.049522 0
-0.008867 -0.053777 0
0.003351 -0.055738 0
0.017407 -0.055336 0
0.032822 -0.052599 0
0.048940 -0.047670 0
0.065053 -0.040866 0
0.080320 -0.032627 0
0.093956 -0.023496 0
0.105263 -0.014039 0
0.113745 -0.004788 0
0.119132 0.003761 0
0.121369 0.011250 0
0.120824 0.017566 0
0.117935 0.022726 0
0.113154 0.026761 0
0.106912 0.029712 0
0.099613 0.031632 0
0.091623 0.032588 0
0.083260 0.032663 0
0.074799 0.031959 0
0.066465 0.030599 0
0.058437 0.028716 0
0.050850 0.026455 0
0.043798 0.023962 0
0.037337 0.021372 0
0.031491 0.018804 0
0.026259 0.016355 0
0.021616 0.014089 0
0.017524 0.012041 0
0.013937 0.010211 0
0.010812 0.008571 0
0.008110 0.007069 0
0.005806 0.005647 0
0.003889 0.004259 0
0.002360 0.002892 0
0.001224 0.001599 0
0.000476 0.000511 0
0.000090 -0.000137 0
0.000000 -0.000003 0
0.000000 0.000020 0
-0.002893 0.017388 0
-0.009549 0.027054 0
-0.018191 0.028820 0
-0.027210 0.023563 0
-0.035303 0.013278 0
-0.041598 0.000352 0
-0.045648 -0.013233 0
-0.047383 -0.026270 0
-0.046856 -0.038149 0
-0.044099 -0.048515 0
-0.039110 -0.057095 0
-0.031885 -0.063617 0
-0.022399 -0.067823 0
-0.010682 -0.069434 0
0.003052 -0.068205 0
0.018473 -0.064160 0
0.034986 -0.057472 0
0.051738 -0.048469 0
0.067904 -0.037710 0
0.082530 -0.025864 0
0.094815 -0.013680 0
0.104150 -0.001847 0
0.110130 0.008903 0
0.112708 0.018083 0
0.112360 0.025630 0
0.109606 0.031565 0
0.104960 0.035955 0
0.098908 0.038891 0
0.091885 0.040488 0
0.084270 0.040882 0
0.076379 0.040231 0
0.068470 0.038707 0
0.060744 0.036496 0
0.053353 0.033785 0
0.046404 0.030761 0
0.039967 0.027595 0
0.034077 0.024436 0
0.028744 0.021403 0
0.023954 0.018580 0
0.019682 0.016013 0
0.015889 0.013705 0
0.012539 0.011626 0
0.009598 0.009716 0
0.007044 0.007902 0
0.004869 0.006125 0
0.003081 0.004364 0
0.001693 0.002668 0
0.000720 0.001182 0
0.000164 0.000165 0
0.000000 -0.000004 0
0.000000 0.000025 0
-0.002976 0.022312 0
-0.009957 0.035026 0
-0.019259 0.038170 0
-0.029348 0.032846 0
-0.038932 0.021393 0
-0.047093 0.006595 0
-0.053300 -0.009163 0
-0.057372 -0.024395 0
-0.059367 -0.038435 0
-0.059303 -0.050965 0
-0.057156 -0.061736 0
-0.052874 -0.070488 0
-0.046394 -0.076940 0
-0.037695 -0.080787 0
-0.026759 -0.081754 0
-0.013639 -0.079604 0
0.001356 -0.074132 0
0.017769 -0.065545 0
0.034872 -0.054288 0
0.051580 -0.040950 0
0.066968 -0.026408 0
0.080087 -0.011553 0
0.090190 0.002692 0
0.096703 0.015336 0
0.099713 0.025828 0
0.099779 0.034160 0
0.097474 0.040410 0
0.093357 0.044707 0
0.087932 0.047226 0
0.081634 0.048169 0
0.074823 0.047759 0
0.067792 0.046234 0
0.060769 0.043833 0
0.053925 0.040795 0
0.047387 0.037348 0
0.041240 0.033699 0
0.035537 0.030027 0
0.030302 0.026477 0
0.025538 0.023151 0
0.021232 0.020106 0
0.017359 0.017354 0
0.013891 0.014862 0
0.010802 0.012564 0
0.008075 0.010375 0
0.005707 0.008222 0
0.003709 0.006069 0
0.002109 0.003959 0
0.000940 0.002039 0
0.000232 0.000583 0
0.000000 -0.000005 0
0.000000 0.000030 0
-0.002942 0.027342 0
-0.009982 0.043337 0
-0.019597 0.048211 0
-0.030384 0.043236 0
-0.041103 0.031023 0
-0.050802 0.014719 0
-0.058893 -0.002954 0
-0.065057 -0.020203 0
-0.069322 -0.036218 0
-0.071728 -0.050727 0
-0.072255 -0.063525 0
-0.070833 -0.074378 0
-0.067370 -0.083001 0
-0.061784 -0.089070 0
-0.054000 -0.092261 0
-0.044007 -0.092275 0
-0.031835 -0.088881 0
-0.017561 -0.081985 0
-0.001627 -0.071520 0
0.015339 -0.057959 0
0.032463 -0.042187 0
0.048482 -0.025070 0
0.062357 -0.007714 0
0.073271 0.008560 0
0.080318 0.022554 0
0.083923 0.033804 0
0.084657 0.042377 0
0.083137 0.048433 0
0.079925 0.052211 0
0.075501 0.053991 0
0.070270 0.054072 0
0.064558 0.052761 0
0.058622 0.050363 0
0.052662 0.047167 0
0.046825 0.043446 0
0.041219 0.039445 0
0.035918 0.035374 0
0.030968 0.031401 0
0.026389 0.027650 0
0.022186 0.024192 0
0.018351 0.021046 0
0.014867 0.018183 0
0.011718 0.015531 0
0.008894 0.012997 0
0.006396 0.010491 0
0.004243 0.007962 0
0.002472 0.005437 0
0.001136 0.003059 0
0.000293 0.001105 0
0.000000 -0.000006 0
0.000000 0.000034 0
-0.002808 0.032292 0
-0.009660 0.051679 0
-0.019247 0.058571 0
-0.030348 0.054351 0
-0.041814 0.041811 0
-0.052686 0.024385 0
-0.062309 0.005091 0
-0.070311 -0.013967 0
-0.076566 -0.031765 0
-0.081180 -0.048032 0
-0.084160 -0.062631 0
-0.085441 -0.075373 0
-0.084919 -0.085989 0
-0.082471 -0.094158 0
-0.077971 -0.099530 0
-0.071316 -0.101768 0
-0.062435 -0.100578 0
-0.051323 -0.095753 0
-0.038089 -0.087188 0
-0.022844 -0.075041 0
-0.006196 -0.059552 0
0.010984 -0.041447 0
0.027688 -0.022097 0
0.042574 -0.002626 0
0.054282 0.015175 0
0.062117 0.029821 0
0.066561 0.041196 0
0.068286 0.049440 0
0.067895 0.054862 0
0.065898 0.057823 0
0.062741 0.058702 0
0.058785 0.057881 0
0.054319 0.055729 0
0.049573 0.052592 0
0.044724 0.048790 0
0.039907 0.044605 0
0.035221 0.040278 0
0.030738 0.036006 0
0.026502 0.031932 0
0.022539 0.028144 0
0.018858 0.024674 0
0.015460 0.021495 0
0.012340 0.018537 0
0.009496 0.015697 0
0.006935 0.012872 0
0.004683 0.009993 0
0.002785 0.007066 0
0.001311 0.004218 0
0.000351 0.001719 0
0.000000 -0.000006 0
0.000000 0.000037 0
-0.002593 0.037000 0
-0.009049 0.059775 0
-0.018304 0.068898 0
-0.029356 0.065803 0
-0.041185 0.053361 0
-0.052853 0.035213 0
-0.063657 0.014670 0
-0.073189 -0.005946 0
-0.081183 -0.025349 0
-0.087743 -0.043133 0
-0.092930 -0.059264 0
-0.096711 -0.073619 0
-0.098986 -0.085971 0
-0.099612 -0.096018 0
-0.098423 -0.103416 0
-0.095250 -0.107811 0
-0.089930 -0.108874 0
-0.082336 -0.106331 0
-0.072402 -0.099999 0
-0.060134 -0.089853 0
-0.045760 -0.076016 0
-0.029528 -0.058954 0
-0.012179 -0.039304 0
0.005079 -0.018034 0
0.021132 0.003011 0
0.034080 0.021526 0
0.042984 0.036208 0
0.048670 0.047099 0
0.051743 0.054599 0
0.052738 0.059144 0
0.052158 0.061185 0
0.050399 0.061184 0
0.047789 0.059575 0
0.044593 0.056762 0
0.041024 0.053112 0
0.037248 0.048947 0
0.033396 0.044542 0
0.029569 0.040120 0
0.025839 0.035849 0
0.022256 0.031836 0
0.018853 0.028125 0
0.015649 0.024701 0
0.012652 0.021496 0
0.009871 0.018402 0
0.007319 0.015304 0
0.005027 0.012112 0
0.003048 0.008808 0
0.001468 0.005493 0
0.000405 0.002416 0
0.000000 -0.000007 0
0.000000 0.000039 0
-0.002319 0.041339 0
-0.008220 0.067390 0
-0.016893 0.078878 0
-0.027576 0.077232 0
-0.039415 0.065308 0
-0.051522 0.046857 0
-0.063163 0.025426 0
-0.073870 0.003558 0
-0.083387 -0.017211 0
-0.091637 -0.036284 0
-0.098775 -0.053663 0
-0.104816 -0.069317 0
-0.109681 -0.083089 0
-0.113229 -0.094720 0
-0.115270 -0.103892 0
-0.115589 -0.110261 0
-0.113955 -0.113492 0
-0.110140 -0.113282 0
-0.103942 -0.109390 0
-0.095213 -0.101682 0
-0.083920 -0.090158 0
-0.070137 -0.075028 0
-0.054251 -0.056704 0
-0.036754 -0.035938 0
-0.018530 -0.013826 0
-0.001171 0.007969 0
0.013150 0.026605 0
0.023775 0.040681 0
0.031089 0.050794 0
0.035724 0.057408 0
0.038284 0.061040 0
0.039202 0.062250 0
0.038857 0.061535 0
0.037569 0.059358 0
0.035587 0.056136 0
0.033120 0.052232 0
0.030335 0.047957 0
0.027366 0.043563 0
0.024319 0.039244 0
0.021272 0.035129 0
0.018282 0.031281 0
0.015390 0.027696 0
0.012621 0.024315 0
0.009995 0.021030 0
0.007532 0.017716 0
0.005267 0.014264 0
0.003259 0.010624 0
0.001607 0.006860 0
0.000458 0.003187 0
0.000000 -0.000006 0
0.000000 0.000040 0
-0.002011 0.045218 0
-0.007247 0.074348 0
-0.015148 0.088253 0
-0.025198 0.088324 0
-0.036732 0.077307 0
-0.048945 0.058961 0
-0.061093 0.037019 0
-0.072666 0.014277 0
-0.083418 -0.007583 0
-0.093132 -0.027745 0
-0.101968 -0.046086 0
-0.110008 -0.062712 0
-0.117214 -0.077558 0
-0.123457 -0.090429 0
-0.128543 -0.101056 0
-0.132230 -0.109126 0
-0.134243 -0.114323 0
-0.134285 -0.116344 0
-0.132055 -0.114926 0
-0.127275 -0.109874 0
-0.119725 -0.101093 0
-0.109276 -0.088624 0
-0.095976 -0.072688 0
-0.080040 -0.053754 0
-0.062027 -0.032572 0
-0.042784 -0.010154 0
-0.023802 0.011262 0
-0.007688 0.029160 0
0.004805 0.042650 0
0.014053 0.051949 0
0.020528 0.057707 0
0.024729 0.060611 0
0.027150 0.061208 0
0.028190 0.060032 0
0.028153 0.057561 0
0.027299 0.054200 0
0.025845 0.050295 0
0.023966 0.046136 0
0.021802 0.041944 0
0.019466 0.037873 0
0.017045 0.034007 0
0.014602 0.030362 0
0.012183 0.026890 0
0.009819 0.023491 0
0.007540 0.020032 0
0.005381 0.016385 0
0.003406 0.012468 0
0.001724 0.008294 0
0.000508 0.004023 0
0.000000 -0.000006 0
0.000000 0.000040 0
-0.001687 0.048584 0
-0.006196 0.080526 0
-0.013198 0.096828 0
-0.022413 0.098816 0
-0.033378 0.089055 0
-0.045403 0.071217 0
-0.057755 0.049147 0
-0.069889 0.025883 0
-0.081530 0.003256 0
-0.092526 -0.017734 0
-0.102816 -0.036787 0
-0.112587 -0.054071 0
-0.121853 -0.069641 0
-0.130511 -0.083392 0
-0.138375 -0.095118 0
-0.145194 -0.104561 0
-0.150668 -0.111438 0
-0.154458 -0.115469 0
-0.156204 -0.116400 0
-0.155536 -0.114013 0
-0.152109 -0.108158 0
-0.145627 -0.098777 0
-0.135897 -0.085939 0
-0.122867 -0.069887 0
-0.106726 -0.051082 0
-0.087931 -0.030256 0
-0.067243 -0.008491 0
-0.046668 0.012075 0
-0.028529 0.029054 0
-0.013856 0.041685 0
-0.002530 0.050364 0
0.005877 0.055628 0
0.011843 0.058074 0
0.015813 0.058355 0
0.018201 0.057027 0
0.019361 0.054540 0
0.019575 0.051290 0
0.019073 0.047606 0
0.018042 0.043744 0
0.016635 0.039887 0
0.014972 0.036145 0
0.013146 0.032559 0
0.011226 0.029098 0
0.009258 0.025673 0
0.007278 0.022154 0
0.005327 0.018397 0
0.003466 0.014281 0
0.001809 0.009759 0
0.000554 0.004911 0
0.000000 -0.000005 0
0.000000 0.000040 0
-0.001364 0.051414 0
-0.005127 0.085858 0
-0.011161 0.104469 0
-0.019399 0.108503 0
-0.029585 0.100297 0
-0.041167 0.083338 0
-0.053450 0.061505 0
-0.065859 0.038052 0
-0.078092 0.015053 0
-0.090071 -0.006459 0
-0.101613 -0.026025 0
-0.112858 -0.043676 0
-0.123894 -0.059633 0
-0.134659 -0.073907 0
-0.144984 -0.086373 0
-0.154618 -0.096834 0
-0.163253 -0.105059 0
-0.170532 -0.110808 0
-0.176061 -0.113848 0
-0.179424 -0.113969 0
-0.180199 -0.111002 0
-0.177986 -0.104837 0
-0.172436 -0.095448 0
-0.163294 -0.082925 0
-0.150457 -0.067508 0
-0.134037 -0.049637 0
-0.114443 -0.030001 0
-0.092483 -0.009554 0
-0.070128 0.009839 0
-0.049780 0.025949 0
-0.032853 0.037974 0
-0.019249 0.046238 0
-0.008756 0.051272 0
-0.000944 0.053673 0
0.004647 0.054014 0
0.008456 0.052826 0
0.010845 0.050583 0
0.012135 0.047669 0
0.012586 0.044382 0
0.012405 0.040943 0
0.011758 0.037495 0
0.010775 0.034108 0
0.009551 0.030779 0
0.008153 0.027438 0
0.006630 0.023963 0
0.005021 0.020198 0
0.003387 0.015985 0
0.001839 0.011205 0
0.000591 0.005832 0
0.000000 -0.000004 0
0.000000 0.000039 0
-0.001054 0.053710 0
-0.004084 0.090323 0
-0.009132 0.111100 0
-0.016314 0.117240 0
-0.025567 0.110824 0
-0.036497 0.095082 0
-0.048474 0.073838 0
-0.060906 0.050525 0
-0.073456 0.027468 0
-0.086041 0.005787 0
-0.098642 -0.014000 0
-0.111122 -0.031790 0
-0.123642 -0.047839 0
-0.136194 -0.062302 0
-0.148633 -0.075160 0
-0.160720 -0.086291 0
-0.172148 -0.095523 0
-0.182553 -0.102661 0
-0.191531 -0.107508 0
-0.198646 -0.109875 0
-0.203443 -0.109596 0
-0.205471 -0.106540 0
-0.204302 -0.100631 0
-0.199560 -0.091866 0
-0.190968 -0.080338 0
-0.178389 -0.066270 0
-0.161903 -0.050045 0
-0.141884 -0.032240 0
-0.119062 -0.013648 0
-0.095219 0.004411 0
-0.072660 0.019833 0
-0.053171 0.031531 0
-0.037158 0.039768 0
-0.024371 0.044951 0
-0.014496 0.047627 0
-0.007079 0.048342 0
-0.001695 0.047612 0
0.002070 0.045865 0
0.004568 0.043474 0
0.006081 0.040715 0
0.006842 0.037775 0
0.007036 0.034765 0
0.006799 0.031719 0
0.006226 0.028594 0
0.005381 0.025287 0
0.004313 0.021640 0
0.003074 0.017463 0
0.001767 0.012554 0
0.000607 0.006750 0
0.000000 -0.000003 0
0.000000 0.000037 0
-0.000767 0.055496 0
-0.003103 0.093936 0
-0.007188 0.116699 0
-0.013286 0.124938 0
-0.021508 0.120480 0
-0.031624 0.106245 0
-0.043094 0.085914 0
-0.055327 0.063034 0
-0.067937 0.040188 0
-0.080827 0.018727 0
-0.094093 -0.000944 0
-0.107630 -0.018675 0
-0.121377 -0.034561 0
-0.135405 -0.048916 0
-0.149609 -0.061846 0
-0.163768 -0.073319 0
-0.177582 -0.083227 0
-0.190694 -0.091425 0
-0.202701 -0.097755 0
-0.213166 -0.102056 0
-0.221629 -0.104176 0
-0.227621 -0.103978 0
-0.230686 -0.101359 0
-0.230401 -0.096258 0
-0.226404 -0.088679 0
-0.218431 -0.078701 0
-0.206355 -0.066506 0
-0.190243 -0.052395 0
-0.170413 -0.036827 0
-0.147492 -0.020452 0
-0.122763 -0.004074 0
-0.098456 0.010737 0
-0.076330 0.022473 0
-0.057574 0.031011 0
-0.042207 0.036722 0
-0.029920 0.040025 0
-0.020350 0.041434 0
-0.013053 0.041406 0
-0.007598 0.040371 0
-0.003622 0.038669 0
-0.000806 0.036540 0
0.001112 0.034151 0
0.002327 0.031589 0
0.002978 0.028856 0
0.003161 0.025875 0
0.002936 0.022505 0
0.002355 0.018532 0
0.001502 0.013672 0
0.000574 0.007599 0
0.000000 -0.000002 0
0.000000 0.000036 0
-0.000508 0.056811 0
-0.002208 0.096743 0
-0.005386 0.121283 0
-0.010418 0.131560 0
-0.017561 0.129161 0
-0.026747 0.116668 0
-0.037552 0.097541 0
-0.049403 0.075367 0
-0.061870 0.052967 0
-0.074815 0.031943 0
-0.088330 0.012803 0
-0.102559 -0.004506 0
-0.117333 -0.020065 0
-0.132554 -0.034071 0
-0.148188 -0.046797 0
-0.164041 -0.058318 0
-0.179828 -0.068597 0
-0.195206 -0.077542 0
-0.209784 -0.085035 0
-0.223136 -0.090947 0
-0.234811 -0.095140 0
-0.244345 -0.097482 0
-0.251280 -0.097851 0
-0.255180 -0.096147 0
-0.255654 -0.092307 0
-0.252385 -0.086319 0
-0.245152 -0.078233 0
-0.233861 -0.068182 0
-0.218575 -0.056398 0
-0.199568 -0.043239 0
-0.177380 -0.029202 0
-0.152812 -0.014901 0
-0.127598 -0.001114 0
-0.103513 0.010828 0
-0.081864 0.019973 0
-0.063475 0.026485 0
-0.048347 0.030744 0
-0.036124 0.033113 0
-0.026401 0.034043 0
-0.018792 0.033922 0
-0.012897 0.033040 0
-0.008375 0.031632 0
-0.004952 0.029852 0
-0.002429 0.027761 0
-0.000660 0.025329 0
0.000445 0.022445 0
0.000942 0.018897 0
0.000890 0.014335 0
0.000443 0.008252 0
0.000000 -0.000001 0
0.000000 0.000033 0
-0.000282 0.057703 0
-0.001415 0.098813 0
-0.003764 0.124908 0
-0.007783 0.137113 0
-0.013845 0.136809 0
-0.022032 0.126235 0
-0.032049 0.108569 0
-0.043371 0.087353 0
-0.055533 0.065601 0
-0.068334 0.045186 0
-0.081839 0.026799 0
-0.096248 0.010328 0
-0.111652 -0.004565 0
-0.127846 -0.018061 0
-0.144605 -0.030360 0
-0.161798 -0.041679 0
-0.179158 -0.052061 0
-0.196367 -0.061468 0
-0.213051 -0.069825 0
-0.228805 -0.077029 0
-0.243201 -0.082965 0
-0.255792 -0.087508 0
-0.266129 -0.090524 0
-0.273775 -0.091884 0
-0.278328 -0.091473 0
-0.279446 -0.089202 0
-0.276862 -0.085030 0
-0.270410 -0.078972 0
-0.260038 -0.071119 0
-0.245832 -0.061647 0
-0.228043 -0.050830 0
-0.207119 -0.039045 0
-0.183696 -0.026827 0
-0.158683 -0.014723 0
-0.133666 -0.003316 0
-0.110024 0.006508 0
-0.088676 0.014083 0
-0.070222 0.019460 0
-0.054814 0.023039 0