# vtk DataFile Version 2.0
generated by CFD-lab course output (written by Tobias Neckel) 
ASCII

DATASET STRUCTURED_GRID
DIMENSIONS  51 51 1 
POINTS 2601 float

0.000000 0.000000 0
0.020000 0.000000 0
0.040000 0.000000 0
0.060000 0.000000 0
0.080000 0.000000 0
0.100000 0.000000 0
0.120000 0.000000 0
0.140000 0.000000 0
0.160000 0.000000 0
0.180000 0.000000 0
0.200000 0.000000 0
0.220000 0.000000 0
0.240000 0.000000 0
0.260000 0.000000 0
0.280000 0.000000 0
0.300000 0.000000 0
0.320000 0.000000 0
0.340000 0.000000 0
0.360000 0.000000 0
0.380000 0.000000 0
0.400000 0.000000 0
0.420000 0.000000 0
0.440000 0.000000 0
0.460000 0.000000 0
0.480000 0.000000 0
0.500000 0.000000 0
0.520000 0.000000 0
0.540000 0.000000 0
0.560000 0.000000 0
0.580000 0.000000 0
0.600000 0.000000 0
0.620000 0.000000 0
0.640000 0.000000 0
0.660000 0.000000 0
0.680000 0.000000 0
0.700000 0.000000 0
0.720000 0.000000 0
0.740000 0.000000 0
0.760000 0.000000 0
0.780000 0.000000 0
0.800000 0.000000 0
0.820000 0.000000 0
0.840000 0.000000 0
0.860000 0.000000 0
0.880000 0.000000 0
0.900000 0.000000 0
0.920000 0.000000 0
0.940000 0.000000 0
0.960000 0.000000 0
0.980000 0.000000 0
1.000000 0.000000 0
0.000000 0.020000 0
0.020000 0.020000 0
0.040000 0.020000 0
0.060000 0.020000 0
0.080000 0.020000 0
0.100000 0.020000 0
0.120000 0.020000 0
0.140000 0.020000 0
0.160000 0.020000 0
0.180000 0.020000 0
0.200000 0.020000 0
0.220000 0.020000 0
0.240000 0.020000 0
0.260000 0.020000 0
0.280000 0.020000 0
0.300000 0.020000 0
0.320000 0.020000 0
0.340000 0.020000 0
0.360000 0.020000 0
0.380000 0.020000 0
0.400000 0.020000 0
0.420000 0.020000 0
0.440000 0.020000 0
0.460000 0.020000 0
0.480000 0.020000 0
0.500000 0.020000 0
0.520000 0.020000 0
0.540000 0.020000 0
0.560000 0.020000 0
0.580000 0.020000 0
0.600000 0.020000 0
0.620000 0.020000 0
0.640000 0.020000 0
0.660000 0.020000 0
0.680000 0.020000 0
0.700000 0.020000 0
0.720000 0.020000 0
0.740000 0.020000 0
0.760000 0.020000 0
0.780000 0.020000 0
0.800000 0.020000 0
0.820000 0.020000 0
0.840000 0.020000 0
0.860000 0.020000 0
0.880000 0.020000 0
0.900000 0.020000 0
0.920000 0.020000 0
0.940000 0.020000 0
0.960000 0.020000 0
0.980000 0.020000 0
1.000000 0.020000 0
0.000000 0.040000 0
0.020000 0.040000 0
0.040000 0.040000 0
0.060000 0.040000 0
0.080000 0.040000 0
0.100000 0.040000 0
0.120000 0.040000 0
0.140000 0.040000 0
0.160000 0.040000 0
0.180000 0.040000 0
0.200000 0.040000 0
0.220000 0.040000 0
0.240000 0.040000 0
0.260000 0.040000 0
0.280000 0.040000 0
0.300000 0.040000 0
0.320000 0.040000 0
0.340000 0.040000 0
0.360000 0.040000 0
0.380000 0.040000 0
0.400000 0.040000 0
0.420000 0.040000 0
0.440000 0.040000 0
0.460000 0.040000 0
0.480000 0.040000 0
0.500000 0.040000 0
0.520000 0.040000 0
0.540000 0.040000 0
0.560000 0.040000 0
0.580000 0.040000 0
0.600000 0.040000 0
0.620000 0.040000 0
0.640000 0.040000 0
0.660000 0.040000 0
0.680000 0.040000 0
0.700000 0.040000 0
0.720000 0.040000 0
0.740000 0.040000 0
0.760000 0.040000 0
0.780000 0.040000 0
0.800000 0.040000 0
0.820000 0.040000 0
0.840000 0.040000 0
0.860000 0.040000 0
0.880000 0.040000 0
0.900000 0.040000 0
0.920000 0.040000 0
0.940000 0.040000 0
0.960000 0.040000 0
0.980000 0.040000 0
1.000000 0.040000 0
0.000000 0.060000 0
0.020000 0.060000 0
0.040000 0.060000 0
0.060000 0.060000 0
0.080000 0.060000 0
0.100000 0.060000 0
0.120000 0.060000 0
0.140000 0.060000 0
0.160000 0.060000 0
0.180000 0.060000 0
0.200000 0.060000 0
0.220000 0.060000 0
0.240000 0.060000 0
0.260000 0.060000 0
0.280000 0.060000 0
0.300000 0.060000 0
0.320000 0.060000 0
0.340000 0.060000 0
0.360000 0.060000 0
0.380000 0.060000 0
0.400000 0.060000 0
0.420000 0.060000 0
0.440000 0.060000 0
0.460000 0.060000 0
0.480000 0.060000 0
0.500000 0.060000 0
0.520000 0.060000 0
0.540000 0.060000 0
0.560000 0.060000 0
0.580000 0.060000 0
0.600000 0.060000 0
0.620000 0.060000 0
0.640000 0.060000 0
0.660000 0.060000 0
0.680000 0.060000 0
0.700000 0.060000 0
0.720000 0.060000 0
0.740000 0.060000 0
0.760000 0.060000 0
0.780000 0.060000 0
0.800000 0.060000 0
0.820000 0.060000 0
0.840000 0.060000 0
0.860000 0.060000 0
0.880000 0.060000 0
0.900000 0.060000 0
0.920000 0.060000 0
0.940000 0.060000 0
0.960000 0.060000 0
0.980000 0.060000 0
1.000000 0.060000 0
0.000000 0.080000 0
0.020000 0.080000 0
0.040000 0.080000 0
0.060000 0.080000 0
0.080000 0.080000 0
0.100000 0.080000 0
0.120000 0.080000 0
0.140000 0.080000 0
0.160000 0.080000 0
0.180000 0.080000 0
0.200000 0.080000 0
0.220000 0.080000 0
0.240000 0.080000 0
0.260000 0.080000 0
0.280000 0.080000 0
0.300000 0.080000 0
0.320000 0.080000 0
0.340000 0.080000 0
0.360000 0.080000 0
0.380000 0.080000 0
0.400000 0.080000 0
0.420000 0.080000 0
0.440000 0.080000 0
0.460000 0.080000 0
0.480000 0.080000 0
0.500000 0.080000 0
0.520000 0.080000 0
0.540000 0.080000 0
0.560000 0.080000 0
0.580000 0.080000 0
0.600000 0.080000 0
0.620000 0.080000 0
0.640000 0.080000 0
0.660000 0.080000 0
0.680000 0.080000 0
0.700000 0.080000 0
0.720000 0.080000 0
0.740000 0.080000 0
0.760000 0.080000 0
0.780000 0.080000 0
0.800000 0.080000 0
0.820000 0.080000 0
0.840000 0.080000 0
0.860000 0.080000 0
0.880000 0.080000 0
0.900000 0.080000 0
0.920000 0.080000 0
0.940000 0.080000 0
0.960000 0.080000 0
0.980000 0.080000 0
1.000000 0.080000 0
0.000000 0.100000 0
0.020000 0.100000 0
0.040000 0.100000 0
0.060000 0.100000 0
0.080000 0.100000 0
0.100000 0.100000 0
0.120000 0.100000 0
0.140000 0.100000 0
0.160000 0.100000 0
0.180000 0.100000 0
0.200000 0.100000 0
0.220000 0.100000 0
0.240000 0.100000 0
0.260000 0.100000 0
0.280000 0.100000 0
0.300000 0.100000 0
0.320000 0.100000 0
0.340000 0.100000 0
0.360000 0.100000 0
0.380000 0.100000 0
0.400000 0.100000 0
0.420000 0.100000 0
0.440000 0.100000 0
0.460000 0.100000 0
0.480000 0.100000 0
0.500000 0.100000 0
0.520000 0.100000 0
0.540000 0.100000 0
0.560000 0.100000 0
0.580000 0.100000 0
0.600000 0.100000 0
0.620000 0.100000 0
0.640000 0.100000 0
0.660000 0.100000 0
0.680000 0.100000 0
0.700000 0.100000 0
0.720000 0.100000 0
0.740000 0.100000 0
0.760000 0.100000 0
0.780000 0.100000 0
0.800000 0.100000 0
0.820000 0.100000 0
0.840000 0.100000 0
0.860000 0.100000 0
0.880000 0.100000 0
0.900000 0.100000 0
0.920000 0.100000 0
0.940000 0.100000 0
0.960000 0.100000 0
0.980000 0.100000 0
1.000000 0.100000 0
0.000000 0.120000 0
0.020000 0.120000 0
0.040000 0.120000 0
0.060000 0.120000 0
0.080000 0.120000 0
0.100000 0.120000 0
0.120000 0.120000 0
0.140000 0.120000 0
0.160000 0.120000 0
0.180000 0.120000 0
0.200000 0.120000 0
0.220000 0.120000 0
0.240000 0.120000 0
0.260000 0.120000 0
0.280000 0.120000 0
0.300000 0.120000 0
0.320000 0.120000 0
0.340000 0.120000 0
0.360000 0.120000 0
0.380000 0.120000 0
0.400000 0.120000 0
0.420000 0.120000 0
0.440000 0.120000 0
0.460000 0.120000 0
0.480000 0.120000 0
0.500000 0.120000 0
0.520000 0.120000 0
0.540000 0.120000 0
0.560000 0.120000 0
0.580000 0.120000 0
0.600000 0.120000 0
0.620000 0.120000 0
0.640000 0.120000 0
0.660000 0.120000 0
0.680000 0.120000 0
0.700000 0.120000 0
0.720000 0.120000 0
0.740000 0.120000 0
0.760000 0.120000 0
0.780000 0.120000 0
0.800000 0.120000 0
0.820000 0.120000 0
0.840000 0.120000 0
0.860000 0.120000 0
0.880000 0.120000 0
0.900000 0.120000 0
0.920000 0.120000 0
0.940000 0.120000 0
0.960000 0.120000 0
0.980000 0.120000 0
1.000000 0.120000 0
0.000000 0.140000 0
0.020000 0.140000 0
0.040000 0.140000 0
0.060000 0.140000 0
0.080000 0.140000 0
0.100000 0.140000 0
0.120000 0.140000 0
0.140000 0.140000 0
0.160000 0.140000 0
0.180000 0.140000 0
0.200000 0.140000 0
0.220000 0.140000 0
0.240000 0.140000 0
0.260000 0.140000 0
0.280000 0.140000 0
0.300000 0.140000 0
0.320000 0.140000 0
0.340000 0.140000 0
0.360000 0.140000 0
0.380000 0.140000 0
0.400000 0.140000 0
0.420000 0.140000 0
0.440000 0.140000 0
0.460000 0.140000 0
0.480000 0.140000 0
0.500000 0.140000 0
0.520000 0.140000 0
0.540000 0.140000 0
0.560000 0.140000 0
0.580000 0.140000 0
0.600000 0.140000 0
0.620000 0.140000 0
0.640000 0.140000 0
0.660000 0.140000 0
0.680000 0.140000 0
0.700000 0.140000 0
0.720000 0.140000 0
0.740000 0.140000 0
0.760000 0.140000 0
0.780000 0.140000 0
0.800000 0.140000 0
0.820000 0.140000 0
0.840000 0.140000 0
0.860000 0.140000 0
0.880000 0.140000 0
0.900000 0.140000 0
0.920000 0.140000 0
0.940000 0.140000 0
0.960000 0.140000 0
0.980000 0.140000 0
1.000000 0.140000 0
0.000000 0.160000 0
0.020000 0.160000 0
0.040000 0.160000 0
0.060000 0.160000 0
0.080000 0.160000 0
0.100000 0.160000 0
0.120000 0.160000 0
0.140000 0.160000 0
0.160000 0.160000 0
0.180000 0.160000 0
0.200000 0.160000 0
0.220000 0.160000 0
0.240000 0.160000 0
0.260000 0.160000 0
0.280000 0.160000 0
0.300000 0.160000 0
0.320000 0.160000 0
0.340000 0.160000 0
0.360000 0.160000 0
0.380000 0.160000 0
0.400000 0.160000 0
0.420000 0.160000 0
0.440000 0.160000 0
0.460000 0.160000 0
0.480000 0.160000 0
0.500000 0.160000 0
0.520000 0.160000 0
0.540000 0.160000 0
0.560000 0.160000 0
0.580000 0.160000 0
0.600000 0.160000 0
0.620000 0.160000 0
0.640000 0.160000 0
0.660000 0.160000 0
0.680000 0.160000 0
0.700000 0.160000 0
0.720000 0.160000 0
0.740000 0.160000 0
0.760000 0.160000 0
0.780000 0.160000 0
0.800000 0.160000 0
0.820000 0.160000 0
0.840000 0.160000 0
0.860000 0.160000 0
0.880000 0.160000 0
0.900000 0.160000 0
0.920000 0.160000 0
0.940000 0.160000 0
0.960000 0.160000 0
0.980000 0.160000 0
1.000000 0.160000 0
0.000000 0.180000 0
0.020000 0.180000 0
0.040000 0.180000 0
0.060000 0.180000 0
0.080000 0.180000 0
0.100000 0.180000 0
0.120000 0.180000 0
0.140000 0.180000 0
0.160000 0.180000 0
0.180000 0.180000 0
0.200000 0.180000 0
0.220000 0.180000 0
0.240000 0.180000 0
0.260000 0.180000 0
0.280000 0.180000 0
0.300000 0.180000 0
0.320000 0.180000 0
0.340000 0.180000 0
0.360000 0.180000 0
0.380000 0.180000 0
0.400000 0.180000 0
0.420000 0.180000 0
0.440000 0.180000 0
0.460000 0.180000 0
0.480000 0.180000 0
0.500000 0.180000 0
0.520000 0.180000 0
0.540000 0.180000 0
0.560000 0.180000 0
0.580000 0.180000 0
0.600000 0.180000 0
0.620000 0.180000 0
[...]
POINT_DATA 2601 

VECTORS velocity float
0.000000 0.000000 0
-0.000001 0.000000 0
-0.000000 0.000000 0
0.000000 0.000000 0
0.000000 0.000000 0
-0.000000 0.000000 0
-0.000001 0.000000 0
-0.000001 0.000000 0
-0.000000 0.000000 0
0.000000 0.000000 0
0.000000 0.000000 0
0.000000 0.000000 0
0.000000 0.000000 0
-0.000000 0.000000 0
-0.000000 0.000000 0
-0.000000 0.000000 0
-0.000000 0.000000 0
-0.000000 0.000000 0
-0.000000 0.000000 0
-0.000000 0.000000 0
-0.000000 0.000000 0
0.000000 0.000000 0
0.000000 0.000000 0
0.000000 0.000000 0
0.000000 0.000000 0
0.000000 0.000000 0
0.000000 0.000000 0
0.000000 0.000000 0
0.000000 0.000000 0
0.000000 0.000000 0
0.000000 0.000000 0
0.000000 0.000000 0
0.000000 0.000000 0
0.000000 0.000000 0
0.000000 0.000000 0
0.000000 0.000000 0
0.000000 0.000000 0
0.000000 0.000000 0
0.000000 0.000000 0
0.000000 0.000000 0
0.000000 0.000000 0
0.000000 0.000000 0
0.000000 0.000000 0
0.000000 0.000000 0
0.000000 0.000000 0
0.000000 0.000000 0
0.000000 0.000000 0
0.000000 0.000000 0
0.000000 0.000000 0
-0.000000 0.000000 0
0.000000 0.000000 0
0.000000 -0.000001 0
-0.001838 0.001960 0
-0.007293 0.003935 0
-0.014496 0.004468 0
-0.021339 0.003706 0
-0.026483 0.002300 0
-0.029432 0.000761 0
-0.030145 -0.000723 0
-0.028709 -0.002144 0
-0.025181 -0.003517 0
-0.019629 -0.004824 0
-0.012157 -0.006004 0
-0.002950 -0.006919 0
0.007686 -0.007501 0
0.019239 -0.007710 0
0.031133 -0.007493 0
0.042805 -0.006848 0
0.053589 -0.005818 0
0.062935 -0.004500 0
0.070340 -0.003008 0
0.075468 -0.001485 0
0.078195 -0.000072 0
0.078591 0.001174 0
0.076919 0.002235 0
0.073524 0.003085 0
0.068771 0.003719 0
0.063033 0.004139 0
0.056675 0.004348 0
0.050040 0.004358 0
0.043437 0.004193 0
0.037128 0.003886 0
0.031313 0.003477 0
0.026122 0.003014 0
0.021623 0.002537 0
0.017820 0.002081 0
0.014675 0.001672 0
0.012114 0.001323 0
0.010049 0.001040 0
0.008384 0.000822 0
0.007027 0.000663 0
0.005894 0.000554 0
0.004915 0.000485 0
0.004036 0.000445 0
0.003222 0.000422 0
0.002454 0.000402 0
0.001736 0.000372 0
0.001091 0.000319 0
0.000559 0.000235 0
0.000187 0.000121 0
0.000008 0.000009 0
0.000000 0.000000 0
0.000000 -0.000000 0
-0.003822 0.007294 0
-0.012919 0.012659 0
-0.024373 0.014045 0
-0.035363 0.011986 0
-0.044093 0.008092 0
-0.049816 0.003662 0
-0.052382 -0.000722 0
-0.051881 -0.004963 0
-0.048425 -0.009079 0
-0.042123 -0.013025 0
-0.033108 -0.016679 0
-0.021567 -0.019843 0
-0.007731 -0.022189 0
0.007967 -0.023447 0
0.024989 -0.023566 0
0.042557 -0.022457 0
0.059841 -0.020129 0
0.076063 -0.016751 0
0.090295 -0.012533 0
0.101729 -0.007855 0
0.109774 -0.003123 0
0.114047 0.001276 0
0.114580 0.005068 0
0.111838 0.008148 0
0.106455 0.010490 0
0.099094 0.012096 0
0.090404 0.012994 0
0.080984 0.013238 0
0.071361 0.012911 0
0.061972 0.012124 0
0.053151 0.011006 0
0.045128 0.009690 0
0.038033 0.008302 0
0.031908 0.006948 0
0.026723 0.005706 0
0.022397 0.004625 0
0.018818 0.003730 0
0.015857 0.003023 0
0.013384 0.002491 0
0.011280 0.002112 0
0.009442 0.001857 0
0.007788 0.001693 0
0.006263 0.001582 0
0.004838 0.001486 0
0.003515 0.001363 0
0.002323 0.001177 0
0.001319 0.000904 0
0.000568 0.000551 0
0.000125 0.000187 0
0.000000 0.000000 0
0.000000 0.000000 0
-0.005040 0.014879 0
-0.016452 0.024485 0
-0.030604 0.026910 0
-0.044364 0.023425 0
-0.055803 0.016754 0
-0.064110 0.009051 0
-0.069105 0.001344 0
-0.070867 -0.006100 0
-0.069586 -0.013275 0
-0.065422 -0.020142 0
-0.058517 -0.026561 0
-0.049024 -0.032297 0
-0.037104 -0.037035 0
-0.022877 -0.040429 0
-0.006572 -0.042083 0
0.011380 -0.041700 0
0.030529 -0.039323 0
0.050033 -0.034954 0
0.068951 -0.028674 0
0.086279 -0.020964 0
0.100977 -0.012390 0
0.111963 -0.003632 0
0.118529 0.004445 0
0.120446 0.011209 0
0.118275 0.016463 0
0.112902 0.020190 0
0.105241 0.022457 0
0.096122 0.023401 0
0.086270 0.023206 0
0.076285 0.022096 0
0.066622 0.020321 0
0.057604 0.018132 0
0.049434 0.015757 0
0.042208 0.013391 0
0.035938 0.011182 0
0.030573 0.009228 0
0.026017 0.007581 0
0.022152 0.006257 0
0.018847 0.005240 0
0.015982 0.004496 0
0.013445 0.003977 0
0.011148 0.003624 0
0.009028 0.003372 0
0.007052 0.003151 0
0.005215 0.002887 0
0.003549 0.002515 0
0.002113 0.001990 0
0.000989 0.001314 0
0.000260 0.000576 0
0.000000 0.000000 0
0.000000 0.000000 0
-0.005611 0.023746 0
-0.018284 0.038221 0
-0.034077 0.041956 0
-0.049738 0.037185 0
-0.063290 0.027840 0
-0.073913 0.016966 0
-0.081432 0.006035 0
-0.085928 -0.004483 0
-0.087610 -0.014526 0
-0.086680 -0.024094 0
-0.083288 -0.033077 0
-0.077546 -0.041256 0
-0.069543 -0.048336 0
-0.059334 -0.053979 0
-0.046968 -0.057823 0
-0.032437 -0.059558 0
-0.015832 -0.058783 0
0.002433 -0.055173 0
0.021949 -0.048779 0
0.042022 -0.039881 0
0.061477 -0.028808 0
0.078955 -0.016276 0
0.093222 -0.003415 0
0.103067 0.008401 0
0.107589 0.018034 0
0.107502 0.025130 0
0.103888 0.029775 0
0.097758 0.032209 0
0.090043 0.032748 0
0.081520 0.031772 0
0.072779 0.029686 0
0.064254 0.026878 0
0.056240 0.023699 0
0.048916 0.020444 0
0.042362 0.017341 0
0.036585 0.014546 0
0.031536 0.012152 0
0.027135 0.010193 0
0.023281 0.008660 0
0.019871 0.007514 0
0.016809 0.006691 0
0.014012 0.006109 0
0.011421 0.005679 0
0.009001 0.005299 0
0.006743 0.004866 0
0.004676 0.004279 0
0.002860 0.003464 0
0.001390 0.002404 0
0.000389 0.001176 0
0.000000 0.000000 0
0.000000 0.000000 0
-0.005732 0.033162 0
-0.018848 0.052950 0
-0.035466 0.058364 0
-0.052365 0.052640 0
-0.067541 0.040930 0
-0.080139 0.027193 0
-0.089984 0.013358 0
-0.097155 0.000077 0
-0.101799 -0.012524 0
-0.104135 -0.024465 0
-0.104333 -0.035695 0
-0.102487 -0.046041 0
-0.098646 -0.055247 0
-0.092825 -0.063004 0
-0.085007 -0.068980 0
-0.075152 -0.072836 0
-0.063254 -0.074193 0
-0.049204 -0.072736 0
-0.032981 -0.068264 0
-0.014809 -0.060492 0
0.004760 -0.049323 0
0.025018 -0.035377 0
0.044813 -0.019667 0
0.062459 -0.003158 0
0.075919 0.012028 0
0.083936 0.023891 0
0.087143 0.032201 0
0.086509 0.037246 0
0.083153 0.039443 0
0.078021 0.039360 0
0.071835 0.037588 0
0.065168 0.034671 0
0.058442 0.031094 0
0.051943 0.027269 0
0.045849 0.023514 0
0.040251 0.020054 0
0.035178 0.017031 0
0.030609 0.014512 0
0.026497 0.012504 0
0.022776 0.010968 0
0.019379 0.009836 0
0.016244 0.009011 0
0.013321 0.008384 0
0.010579 0.007828 0
0.008009 0.007211 0
0.005633 0.006398 0
0.003510 0.005277 0
0.001747 0.003786 0
0.000504 0.001967 0
0.000000 0.000000 0
0.000000 0.000000 0
-0.005548 0.042592 0
-0.018488 0.067955 0
-0.035274 0.075474 0
-0.052858 0.069262 0
-0.069214 0.055614 0
-0.083413 0.039408 0
-0.095239 0.023050 0
-0.104759 0.007331 0
-0.112076 -0.007546 0
-0.117345 -0.021559 0
-0.120759 -0.034724 0
-0.122421 -0.046942 0
-0.122371 -0.057998 0
-0.120609 -0.067618 0
-0.117108 -0.075496 0
-0.111808 -0.081311 0
-0.104635 -0.084730 0
-0.095449 -0.085445 0
-0.084137 -0.083174 0
-0.070623 -0.077622 0
-0.054753 -0.068635 0
-0.036525 -0.056330 0
-0.016482 -0.040856 0
0.004352 -0.022704 0
0.024730 -0.003444 0
0.042251 0.013907 0
0.054547 0.027202 0
0.061684 0.036198 0
0.064855 0.041236 0
0.065052 0.043090 0
0.063077 0.042540 0
0.059667 0.040272 0
0.055401 0.036923 0
0.050694 0.033037 0
0.045848 0.029033 0
0.041071 0.025217 0
0.036491 0.021793 0
0.032176 0.018873 0
0.028145 0.016494 0
0.024394 0.014633 0
0.020897 0.013223 0
0.017625 0.012167 0
0.014547 0.011344 0
0.011641 0.010611 0
0.008900 0.009811 0
0.006339 0.008778 0
0.004014 0.007351 0
0.002039 0.005409 0
0.000605 0.002922 0
0.000000 0.000000 0
0.000000 -0.000000 0
-0.005160 0.051648 0
-0.017465 0.082677 0
-0.033893 0.092737 0
-0.051684 0.086581 0
-0.068812 0.071484 0
-0.084236 0.053217 0
-0.097667 0.034703 0
-0.109146 0.016913 0
-0.118782 0.000063 0
-0.126637 -0.015781 0
-0.132854 -0.030618 0
-0.137585 -0.044429 0
-0.140877 -0.057058 0
-0.142728 -0.068268 0
-0.143101 -0.077782 0
-0.141929 -0.085308 0
-0.139119 -0.090552 0
-0.134535 -0.093234 0
-0.128024 -0.093090 0
-0.119393 -0.089876 0
-0.108385 -0.083421 0
-0.094795 -0.073649 0
-0.078563 -0.060544 0
-0.059655 -0.044370 0
-0.038376 -0.025870 0
-0.015933 -0.005926 0
0.004858 0.012768 0
0.021604 0.026939 0
0.033387 0.036075 0
0.040851 0.041138 0
0.044819 0.042973 0
0.046209 0.042347 0
0.045727 0.040068 0
0.043928 0.036821 0
0.041265 0.033137 0
0.038086 0.029411 0
0.034647 0.025927 0
0.031122 0.022858 0
0.027622 0.020285 0
0.024217 0.018217 0
0.020942 0.016605 0
0.017810 0.015362 0
0.014821 0.014367 0
0.011969 0.013475 0
0.009251 0.012513 0
0.006681 0.011284 0
0.004305 0.009577 0
0.002235 0.007196 0
0.000684 0.004005 0
0.000000 0.000000 0
0.000000 -0.000001 0
-0.004642 0.060057 0
-0.015990 0.096690 0
-0.031641 0.109695 0
-0.049223 0.104181 0
-0.066752 0.088165 0
-0.083056 0.068262 0
-0.097741 0.047959 0
-0.110818 0.028447 0
-0.122393 0.009945 0
-0.132525 -0.007487 0
-0.141228 -0.023775 0
-0.148670 -0.038918 0
-0.154922 -0.052855 0
-0.159985 -0.065395 0
-0.163812 -0.076295 0
-0.166324 -0.085293 0
-0.167411 -0.092124 0
-0.166935 -0.096541 0
-0.164733 -0.098317 0
-0.160597 -0.097260 0
-0.154273 -0.093233 0
-0.145488 -0.086152 0
-0.133953 -0.075996 0
-0.119363 -0.062892 0
-0.101587 -0.047166 0
-0.080861 -0.029327 0
-0.057610 -0.010335 0
-0.034210 0.007669 0
-0.013555 0.021990 0
0.002531 0.031659 0
0.014263 0.037181 0
0.022254 0.039363 0
0.027117 0.039204 0
0.029592 0.037498 0
0.030297 0.034875 0
0.029735 0.031836 0
0.028308 0.028757 0
0.026313 0.025898 0
0.023974 0.023399 0
0.021454 0.021313 0
0.018864 0.019630 0
0.016274 0.018288 0
0.013725 0.017185 0
0.011238 0.016180 0
0.008821 0.015099 0
0.006488 0.013724 0
0.004275 0.011797 0
0.002283 0.009031 0
0.000727 0.005157 0
0.000000 0.000000 0
0.000000 -0.000001 0
-0.004051 0.067639 0
-0.014229 0.109678 0
-0.028781 0.125971 0
-0.045796 0.121691 0
-0.063388 0.105316 0
-0.080259 0.084206 0
-0.095883 0.062465 0
-0.110219 0.041565 0
-0.123381 0.021769 0
-0.135459 0.003054 0
-0.146439 -0.014474 0
-0.156309 -0.030735 0
-0.165204 -0.045743 0
-0.173137 -0.059378 0
-0.180051 -0.071443 0
-0.185849 -0.081709 0
-0.190397 -0.089940 0
-0.193539 -0.095912 0
-0.195096 -0.099429 0
-0.194863 -0.100335 0
-0.192608 -0.098530 0
-0.188070 -0.093969 0
-0.180956 -0.086669 0
-0.170940 -0.076736 0
-0.157740 -0.064372 0
-0.141176 -0.049904 0
-0.121220 -0.033883 0
-0.098304 -0.017116 0
-0.074083 -0.000667 0
-0.051058 0.013319 0
-0.031160 0.023250 0
-0.015448 0.029492 0
-0.003689 0.032730 0
0.004706 0.033641 0
0.010317 0.032994 0
0.013746 0.031401 0
0.015524 0.029348 0
0.016094 0.027192 0
0.015812 0.025144 0
0.014956 0.023326 0
0.013726 0.021785 0
0.012264 0.020500 0
0.010664 0.019404 0
0.008986 0.018380 0
0.007264 0.017263 0
0.005515 0.015829 0
0.003768 0.013782 0
0.002101 0.010745 0
0.000708 0.006289 0
0.000000 0.000000 0
0.000000 -0.000000 0
-0.003433 0.074288 0
-0.012320 0.121422 0
-0.025538 0.141261 0
-0.041680 0.138786 0
-0.059029 0.122627 0
-0.076186 0.100756 0
-0.092472 0.077919 0
-0.107776 0.055947 0
-0.122211 0.035185 0
-0.135891 0.015570 0
-0.148849 -0.002926 0
-0.160955 -0.020153 0
-0.172227 -0.036028 0
-0.182724 -0.050548 0
-0.192394 -0.063583 0
-0.201121 -0.074947 0
-0.208746 -0.084434 0
-0.215081 -0.091842 0
-0.219919 -0.096993 0
-0.223039 -0.099749 0
-0.224216 -0.100026 0
-0.223214 -0.097804 0
-0.219789 -0.093126 0
-0.213687 -0.086107 0
-0.204664 -0.076930 0
-0.192501 -0.065847 0
-0.177058 -0.053207 0
-0.158395 -0.039468 0
-0.136862 -0.025256 0
-0.113215 -0.011265 0
-0.089530 0.001571 0
-0.067622 0.011893 0
-0.048697 0.019049 0
-0.033396 0.023492 0
-0.021536 0.025836 0
-0.012634 0.026629 0
-0.006177 0.026410 0
-0.001677 0.025610 0
0.001325 0.024536 0
0.003213 0.023399 0
0.004291 0.022323 0
0.004782 0.021351 0
0.004849 0.020462 0
0.004607 0.019580 0
0.004125 0.018571 0
0.003439 0.017220 0
0.002572 0.015211 0
0.001573 0.012091 0
0.000590 0.007259 0
0.000000 0.000000 0
0.000000 0.000000 0
-0.002820 0.079960 0
-0.010370 0.131784 0
-0.022099 0.155329 0
-0.037116 0.155181 0
-0.053948 0.139822 0
-0.071135 0.117649 0
-0.087840 0.094056 0
-0.103852 0.071305 0
-0.119268 0.049885 0
-0.134224 0.029691 0
-0.148775 0.010590 0
-0.162872 -0.007358 0
-0.176318 -0.023973 0
-0.189106 -0.039210 0
-0.201218 -0.053046 0
-0.212537 -0.065358 0
-0.222886 -0.075980 0
-0.232045 -0.084740 0
-0.239773 -0.091470 0
-0.245817 -0.096038 0
-0.249930 -0.098356 0
-0.251880 -0.098396 0
-0.251455 -0.096195 0
-0.248467 -0.091860 0
-0.242756 -0.085558 0
-0.234190 -0.077510 0
-0.222684 -0.067989 0
-0.208230 -0.057311 0
-0.190945 -0.045847 0
-0.171170 -0.034012 0
-0.149421 -0.022343 0
-0.126650 -0.011341 0
-0.104407 -0.001497 0
-0.083909 0.006480 0
-0.065902 0.012232 0
-0.050781 0.016042 0
-0.038549 0.018391 0
-0.028845 0.019689 0
-0.021242 0.020254 0
-0.015339 0.020360 0
-0.010782 0.020216 0
-0.007288 0.019943 0
-0.004621 0.019579 0
-0.002605 0.019103 0
-0.001124 0.018431 0
-0.000118 0.017382 0
0.000438 0.015648 0
0.000559 0.012726 0
0.000322 0.007861 0
0.000000 0.000000 0
0.000000 0.000001 0
-0.002236 0.084659 0
-0.008464 0.140700 0
-0.018619 0.168005 0
-0.032315 0.170634 0
-0.048382 0.156646 0
-0.065365 0.134649 0
-0.082271 0.110636 0
-0.098760 0.087375 0
-0.114888 0.065557 0
-0.130803 0.045077 0
-0.146595 0.025722 0
-0.162268 0.007390 0
-0.177652 -0.009793 0
-0.192506 -0.025649 0
-0.206765 -0.040152 0
-0.220346 -0.053279 0
-0.233075 -0.064925 0
-0.244717 -0.074954 0
-0.255000 -0.083221 0
-0.263635 -0.089592 0
-0.270341 -0.093963 0
-0.274861 -0.096279 0
-0.276977 -0.096538 0
-0.276526 -0.094806 0
-0.273397 -0.091206 0
-0.267540 -0.085919 0
-0.258956 -0.079167 0
-0.247704 -0.071207 0
-0.233899 -0.062316 0
-0.217737 -0.052789 0
-0.199499 -0.042949 0
-0.179658 -0.033121 0
-0.158736 -0.023692 0
-0.137431 -0.015013 0
-0.116744 -0.007292 0
-0.097515 -0.000724 0
-0.080227 0.004473 0
-0.065090 0.008302 0
-0.052133 0.011030 0
-0.041235 0.012940 0
-0.032173 0.014272 0
-0.024641 0.015189 0
-0.018378 0.015778 0
-0.013180 0.016083 0
-0.008905 0.016084 0
-0.005471 0.015659 0
-0.002852 0.014534 0
-0.001067 0.012207 0
-0.000146 0.007818 0
0.000000 0.000000 0
0.000000 0.000001 0
-0.001697 0.088425 0
-0.006663 0.148166 0
-0.015225 0.179180 0
-0.027457 0.184944 0
-0.042542 0.172872 0
-0.059102 0.151539 0
-0.076009 0.127451 0
-0.092775 0.103922 0
-0.109380 0.081927 0
-0.125969 0.061399 0
-0.142658 0.042055 0
-0.159472 0.023699 0
-0.176342 0.006265 0
-0.193010 -0.010098 0
-0.209179 -0.025206 0
-0.224712 -0.039047 0
-0.239479 -0.051609 0
-0.253263 -0.062814 0
-0.265781 -0.072552 0
-0.276720 -0.080697 0
-0.285766 -0.087131 0
-0.292623 -0.091760 0
-0.297040 -0.094530 0
-0.298831 -0.095440 0
-0.297885 -0.094544 0
-0.294173 -0.091951 0
-0.287742 -0.087825 0
-0.278708 -0.082369 0
-0.267242 -0.075814 0
-0.253557 -0.068412 0
-0.237903 -0.060422 0
-0.220580 -0.052104 0
-0.201918 -0.043723 0
-0.182365 -0.035512 0
-0.162387 -0.027684 0
-0.142439 -0.020476 0
-0.122998 -0.014034 0
-0.104607 -0.008404 0
-0.087648 -0.003602 0
-0.072309 0.000400 0
-0.058632 0.003622 0
-0.046569 0.006148 0
-0.036031 0.008118 0
-0.026921 0.009630 0
-0.019139 0.010721 0
-0.012606 0.011329 0
-0.007311 0.011244 0
-0.003330 0.010021 0
-0.000831 0.006795 0
0.000000 -0.000000 0
0.000000 0.000001 0
-0.001214 0.091322 0
-0.005009 0.154227 0
-0.012013 0.188800 0
-0.022694 0.197952 0
-0.036611 0.188291 0
-0.052541 0.168116 0
-0.069263 0.144309 0
-0.086125 0.120745 0
-0.103005 0.098751 0
-0.120019 0.078356 0
-0.137293 0.059226 0
-0.154874 0.041074 0
-0.172717 0.023743 0
-0.190691 0.007188 0
-0.208478 -0.008450 0
-0.225730 -0.022979 0
-0.242217 -0.036374 0
-0.257796 -0.048653 0
-0.272217 -0.059764 0
-0.285169 -0.069606 0
-0.296320 -0.078061 0
-0.305341 -0.085005 0
-0.311935 -0.090330 0
-0.315867 -0.093961 0
-0.316981 -0.095864 0
-0.315213 -0.096062 0
-0.310593 -0.094632 0
-0.303244 -0.091707 0
-0.293360 -0.087467 0
-0.281193 -0.082127 0
-0.267029 -0.075926 0
-0.251173 -0.069106 0
-0.233937 -0.061907 0
-0.215646 -0.054544 0
-0.196613 -0.047218 0
-0.177160 -0.040113 0
-0.157651 -0.033358 0
-0.138410 -0.027048 0
-0.119732 -0.021268 0
-0.101865 -0.016076 0
-0.085016 -0.011468 0
-0.069390 -0.007412 0
-0.055108 -0.003870 0
-0.042238 -0.000810 0
-0.030812 0.001769 0
-0.020880 0.003831 0
-0.012547 0.005258 0
-0.006028 0.005727 0
-0.001671 0.004488 0
0.000000 -0.000000 0
0.000000 0.000000 0
-0.000791 0.093433 0
-0.003530 0.158964 0
-0.009053 0.196865 0
-0.018147 0.209543 0
-0.030748 0.202720 0
-0.045852 0.184190 0
-0.062208 0.161035 0
-0.079002 0.137664 0
-0.095980 0.115820 0
-0.113201 0.095686 0
-0.130788 0.076910 0
-0.148800 0.059123 0
-0.167214 0.042082 0
-0.185924 0.025663 0
-0.204756 0.009833 0
-0.223367 -0.005308 0
-0.241361 -0.019543 0
-0.258417 -0.032815 0
-0.274398 -0.045179 0
-0.289039 -0.056593 0
-0.302028 -0.066958 0
-0.313021 -0.076145 0
-0.321683 -0.084004 0
-0.327721 -0.090395 0
-0.330910 -0.095198 0
-0.331115 -0.098339 0
-0.328302 -0.099794 0
-0.322541 -0.099602 0
-0.314002 -0.097865 0
-0.302934 -0.094743 0
-0.289648 -0.090443 0
-0.274488 -0.085197 0
-0.257807 -0.079250 0
-0.239945 -0.072835 0
-0.221220 -0.066169 0
-0.201928 -0.059437 0
-0.182345 -0.052784 0
-0.162716 -0.046323 0
-0.143264 -0.040147 0
-0.124210 -0.034316 0
-0.105765 -0.028853 0
-0.088113 -0.023760 0
-0.071420 -0.019034 0
-0.055841 -0.014666 0
-0.041537 -0.010637 0
-0.028715 -0.006936 0
-0.017642 -0.003609 0
-0.008714 -0.000855 0
-0.002523 0.000767 0
0.000000 -0.000000 0
0.000000 0.000000 0
-0.000431 0.094850 0
-0.002238 0.162489 0
-0.006391 0.203418 0
-0.013909 0.219647 0
-0.025083 0.215997 0
-0.039183 0.199577 0
-0.054993 0.177459 0
-0.071559 0.154516 0
-0.088475 0.132951 0
-0.105717 0.113164 0
-0.123382 0.094825 0
-0.141536 0.077500 0
-0.160169 0.060867 0
-0.179197 0.044730 0
-0.198476 0.028993 0
-0.217804 0.013627 0
-0.236854 -0.001324 0
-0.255185 -0.015617 0
-0.272425 -0.029141 0
-0.288415 -0.041976 0
-0.302920 -0.054080 0
-0.315627 -0.065350 0
-0.326188 -0.075630 0
-0.334261 -0.084734 0
-0.339553 -0.092470 0
-0.341839 -0.098670 0
-0.340993 -0.103206 0
-0.336993 -0.106008 0
-0.329934 -0.107075 0
-0.320020 -0.106481 0
-0.307541 -0.104371 0
-0.292858 -0.100948 0
-0.276360 -0.096450 0
-0.258444 -0.091130 0
-0.239484 -0.085236 0
-0.219819 -0.078988 0
-0.199746 -0.072570 0
-0.179511 -0.066129 0
-0.159330 -0.059774 0
-0.139393 -0.053574 0
-0.119877 -0.047565 0
-0.100940 -0.041757 0
-0.082745 -0.036142 0
-0.065469 -0.030693 0
-0.049321 -0.025357 0
-0.034562 -0.020063 0
-0.021553 -0.014744 0
-0.010819 -0.009393 0
-0.003197 -0.004225 0
0.000000 -0.000000 0
0.000000 -0.000000 0
-0.000134 0.095670 0
-0.001138 0.164925 0
-0.004050 0.208537 0
-0.010048 0.228236 0
-0.019725 0.227993 0
-0.032660 0.214100 0
-0.047744 0.193411 0
-0.063921 0.171146 0
-0.080626 0.149978 0
-0.097723 0.130594 0
-0.115267 0.112729 0
-0.133316 0.095910 0
-0.151870 0.079743 0
-0.170864 0.063971 0
-0.190176 0.048440 0
-0.209642 0.033070 0
-0.229048 0.017838 0
-0.248116 0.002756 0
-0.266365 -0.011949 0
-0.283424 -0.026098 0
-0.299097 -0.039746 0
-0.313186 -0.052877 0
-0.325382 -0.065370 0
-0.335327 -0.077029 0
-0.342671 -0.087620 0
-0.347109 -0.096899 0
-0.348410 -0.104640 0
-0.346441 -0.110660 0
-0.341188 -0.114838 0
-0.332761 -0.117136 0
-0.321390 -0.117604 0
-0.307405 -0.116379 0
-0.291206 -0.113663 0
-0.273232 -0.109711 0
-0.253919 -0.104794 0
-0.233676 -0.099175 0
-0.212865 -0.093092 0
-0.191792 -0.086739 0
-0.170709 -0.080265 0
-0.149825 -0.073769 0
-0.129316 -0.067306 0
-0.109337 -0.060891 0
-0.090045 -0.054505 0
-0.071611 -0.048090 0
-0.054250 -0.041543 0
-0.038243 -0.034704 0
-0.023993 -0.027352 0
-0.012116 -0.019211 0
-0.003597 -0.010053 0
0.000000 -0.000000 0
0.000000 -0.000000 0
0.000109 0.095988 0
-0.000228 0.166406 0
-0.002038 0.212328 0
-0.006601 0.235322 0
-0.014755 0.238609 0
-0.026389 0.227595 0
-0.040569 0.208720 0
-0.056193 0.187399 0
-0.072539 0.166753 0
-0.089343 0.147805 0
-0.106592 0.130418 0
-0.124328 0.114104 0
-0.142554 0.098414 0
-0.161217 0.083036 0
-0.180219 0.067771 0
-0.199424 0.052498 0
-0.218665 0.037150 0
-0.237733 0.021700 0
-0.256396 0.006167 0
-0.274201 -0.009244 0
-0.290753 -0.024317 0
-0.305848 -0.039065 0
-0.319321 -0.053490 0
-0.330856 -0.067445 0
-0.340082 -0.080688 0
-0.346634 -0.092931 0
-0.350187 -0.103874 0
-0.350494 -0.113229 0
-0.347411 -0.120754 0