# vtk DataFile Version 2.0
generated by CFD-lab course output (written by Tobias Neckel) 
ASCII

DATASET STRUCTURED_GRID
DIMENSIONS  51 51 1 
POINTS 2601 float

0.000000 0.000000 0
0.020000 0.000000 0
0.040000 0.000000 0
0.060000 0.000000 0
0.080000 0.000000 0
0.100000 0.000000 0
0.120000 0.000000 0
0.140000 0.000000 0
0.160000 0.000000 0
0.180000 0.000000 0
0.200000 0.000000 0
0.220000 0.000000 0
0.240000 0.000000 0
0.260000 0.000000 0
0.280000 0.000000 0
0.300000 0.000000 0
0.320000 0.000000 0
0.340000 0.000000 0
0.360000 0.000000 0
0.380000 0.000000 0
0.400000 0.000000 0
0.420000 0.000000 0
0.440000 0.000000 0
0.460000 0.000000 0
0.480000 0.000000 0
0.500000 0.000000 0
0.520000 0.000000 0
0.540000 0.000000 0
0.560000 0.000000 0
0.580000 0.000000 0
0.600000 0.000000 0
0.620000 0.000000 0
0.640000 0.000000 0
0.660000 0.000000 0
0.680000 0.000000 0
0.700000 0.000000 0
0.720000 0.000000 0
0.740000 0.000000 0
0.760000 0.000000 0
0.780000 0.000000 0
0.800000 0.000000 0
0.820000 0.000000 0
0.840000 0.000000 0
0.860000 0.000000 0
0.880000 0.000000 0
0.900000 0.000000 0
0.920000 0.000000 0
0.940000 0.000000 0
0.960000 0.000000 0
0.980000 0.000000 0
1.000000 0.000000 0
0.000000 0.020000 0
0.020000 0.020000 0
0.040000 0.020000 0
0.060000 0.020000 0
0.080000 0.020000 0
0.100000 0.020000 0
0.120000 0.020000 0
0.140000 0.020000 0
0.160000 0.020000 0
0.180000 0.020000 0
0.200000 0.020000 0
0.220000 0.020000 0
0.240000 0.020000 0
0.260000 0.020000 0
0.280000 0.020000 0
0.300000 0.020000 0
0.320000 0.020000 0
0.340000 0.020000 0
0.360000 0.020000 0
0.380000 0.020000 0
0.400000 0.020000 0
0.420000 0.020000 0
0.440000 0.020000 0
0.460000 0.020000 0
0.480000 0.020000 0
0.500000 0.020000 0
0.520000 0.020000 0
0.540000 0.020000 0
0.560000 0.020000 0
0.580000 0.020000 0
0.600000 0.020000 0
0.620000 0.020000 0
0.640000 0.020000 0
0.660000 0.020000 0
0.680000 0.020000 0
0.700000 0.020000 0
0.720000 0.020000 0
0.740000 0.020000 0
0.760000 0.020000 0
0.780000 0.020000 0
0.800000 0.020000 0
0.820000 0.020000 0
0.840000 0.020000 0
0.860000 0.020000 0
0.880000 0.020000 0
0.900000 0.020000 0
0.920000 0.020000 0
0.940000 0.020000 0
0.960000 0.020000 0
0.980000 0.020000 0
1.000000 0.020000 0
0.000000 0.040000 0
0.020000 0.040000 0
0.040000 0.040000 0
0.060000 0.040000 0
0.080000 0.040000 0
0.100000 0.040000 0
0.120000 0.040000 0
0.140000 0.040000 0
0.160000 0.040000 0
0.180000 0.040000 0
0.200000 0.040000 0
0.220000 0.040000 0
0.240000 0.040000 0
0.260000 0.040000 0
0.280000 0.040000 0
0.300000 0.040000 0
0.320000 0.040000 0
0.340000 0.040000 0
0.360000 0.040000 0
0.380000 0.040000 0
0.400000 0.040000 0
0.420000 0.040000 0
0.440000 0.040000 0
0.460000 0.040000 0
0.480000 0.040000 0
0.500000 0.040000 0
0.520000 0.040000 0
0.540000 0.040000 0
0.560000 0.040000 0
0.580000 0.040000 0
0.600000 0.040000 0
0.620000 0.040000 0
0.640000 0.040000 0
0.660000 0.040000 0
0.680000 0.040000 0
0.700000 0.040000 0
0.720000 0.040000 0
0.740000 0.040000 0
0.760000 0.040000 0
0.780000 0.040000 0
0.800000 0.040000 0
0.820000 0.040000 0
0.840000 0.040000 0
0.860000 0.040000 0
0.880000 0.040000 0
0.900000 0.040000 0
0.920000 0.040000 0
0.940000 0.040000 0
0.960000 0.040000 0
0.980000 0.040000 0
1.000000 0.040000 0
0.000000 0.060000 0
0.020000 0.060000 0
0.040000 0.060000 0
0.060000 0.060000 0
0.080000 0.060000 0
0.100000 0.060000 0
0.120000 0.060000 0
0.140000 0.060000 0
0.160000 0.060000 0
0.180000 0.060000 0
0.200000 0.060000 0
0.220000 0.060000 0
0.240000 0.060000 0
0.260000 0.060000 0
0.280000 0.060000 0
0.300000 0.060000 0
0.320000 0.060000 0
0.340000 0.060000 0
0.360000 0.060000 0
0.380000 0.060000 0
0.400000 0.060000 0
0.420000 0.060000 0
0.440000 0.060000 0
0.460000 0.060000 0
0.480000 0.060000 0
0.500000 0.060000 0
0.520000 0.060000 0
0.540000 0.060000 0
0.560000 0.060000 0
0.580000 0.060000 0
0.600000 0.060000 0
0.620000 0.060000 0
0.640000 0.060000 0
0.660000 0.060000 0
0.680000 0.060000 0
0.700000 0.060000 0
0.720000 0.060000 0
0.740000 0.060000 0
0.760000 0.060000 0
0.780000 0.060000 0
0.800000 0.060000 0
0.820000 0.060000 0
0.840000 0.060000 0
0.860000 0.060000 0
0.880000 0.060000 0
0.900000 0.060000 0
0.920000 0.060000 0
0.940000 0.060000 0
0.960000 0.060000 0
0.980000 0.060000 0
1.000000 0.060000 0
0.000000 0.080000 0
0.020000 0.080000 0
0.040000 0.080000 0
0.060000 0.080000 0
0.080000 0.080000 0
0.100000 0.080000 0
0.120000 0.080000 0
0.140000 0.080000 0
0.160000 0.080000 0
0.180000 0.080000 0
0.200000 0.080000 0
0.220000 0.080000 0
0.240000 0.080000 0
0.260000 0.080000 0
0.280000 0.080000 0
0.300000 0.080000 0
0.320000 0.080000 0
0.340000 0.080000 0
0.360000 0.080000 0
0.380000 0.080000 0
0.400000 0.080000 0
0.420000 0.080000 0
0.440000 0.080000 0
0.460000 0.080000 0
0.480000 0.080000 0
0.500000 0.080000 0
0.520000 0.080000 0
0.540000 0.080000 0
0.560000 0.080000 0
0.580000 0.080000 0
0.600000 0.080000 0
0.620000 0.080000 0
0.640000 0.080000 0
0.660000 0.080000 0
0.680000 0.080000 0
0.700000 0.080000 0
0.720000 0.080000 0
0.740000 0.080000 0
0.760000 0.080000 0
0.780000 0.080000 0
0.800000 0.080000 0
0.820000 0.080000 0
0.840000 0.080000 0
0.860000 0.080000 0
0.880000 0.080000 0
0.900000 0.080000 0
0.920000 0.080000 0
0.940000 0.080000 0
0.960000 0.080000 0
0.980000 0.080000 0
1.000000 0.080000 0
0.000000 0.100000 0
0.020000 0.100000 0
0.040000 0.100000 0
0.060000 0.100000 0
0.080000 0.100000 0
0.100000 0.100000 0
0.120000 0.100000 0
0.140000 0.100000 0
0.160000 0.100000 0
0.180000 0.100000 0
0.200000 0.100000 0
0.220000 0.100000 0
0.240000 0.100000 0
0.260000 0.100000 0
0.280000 0.100000 0
0.300000 0.100000 0
0.320000 0.100000 0
0.340000 0.100000 0
0.360000 0.100000 0
0.380000 0.100000 0
0.400000 0.100000 0
0.420000 0.100000 0
0.440000 0.100000 0
0.460000 0.100000 0
0.480000 0.100000 0
0.500000 0.100000 0
0.520000 0.100000 0
0.540000 0.100000 0
0.560000 0.100000 0
0.580000 0.100000 0
0.600000 0.100000 0
0.620000 0.100000 0
0.640000 0.100000 0
0.660000 0.100000 0
0.680000 0.100000 0
0.700000 0.100000 0
0.720000 0.100000 0
0.740000 0.100000 0
0.760000 0.100000 0
0.780000 0.100000 0
0.800000 0.100000 0
0.820000 0.100000 0
0.840000 0.100000 0
0.860000 0.100000 0
0.880000 0.100000 0
0.900000 0.100000 0
0.920000 0.100000 0
0.940000 0.100000 0
0.960000 0.100000 0
0.980000 0.100000 0
1.000000 0.100000 0
0.000000 0.120000 0
0.020000 0.120000 0
0.040000 0.120000 0
0.060000 0.120000 0
0.080000 0.120000 0
0.100000 0.120000 0
0.120000 0.120000 0
0.140000 0.120000 0
0.160000 0.120000 0
0.180000 0.120000 0
0.200000 0.120000 0
0.220000 0.120000 0
0.240000 0.120000 0
0.260000 0.120000 0
0.280000 0.120000 0
0.300000 0.120000 0
0.320000 0.120000 0
0.340000 0.120000 0
0.360000 0.120000 0
0.380000 0.120000 0
0.400000 0.120000 0
0.420000 0.120000 0
0.440000 0.120000 0
0.460000 0.120000 0
0.480000 0.120000 0
0.500000 0.120000 0
0.520000 0.120000 0
0.540000 0.120000 0
0.560000 0.120000 0
0.580000 0.120000 0
0.600000 0.120000 0
0.620000 0.120000 0
0.640000 0.120000 0
0.660000 0.120000 0
0.680000 0.120000 0
0.700000 0.120000 0
0.720000 0.120000 0
0.740000 0.120000 0
0.760000 0.120000 0
0.780000 0.120000 0
0.800000 0.120000 0
0.820000 0.120000 0
0.840000 0.120000 0
0.860000 0.120000 0
0.880000 0.120000 0
0.900000 0.120000 0
0.920000 0.120000 0
0.940000 0.120000 0
0.960000 0.120000 0
0.980000 0.120000 0
1.000000 0.120000 0
0.000000 0.140000 0
0.020000 0.140000 0
0.040000 0.140000 0
0.060000 0.140000 0
0.080000 0.140000 0
0.100000 0.140000 0
0.120000 0.140000 0
0.140000 0.140000 0
0.160000 0.140000 0
0.180000 0.140000 0
0.200000 0.140000 0
0.220000 0.140000 0
0.240000 0.140000 0
0.260000 0.140000 0
0.280000 0.140000 0
0.300000 0.140000 0
0.320000 0.140000 0
0.340000 0.140000 0
0.360000 0.140000 0
0.380000 0.140000 0
0.400000 0.140000 0
0.420000 0.140000 0
0.440000 0.140000 0
0.460000 0.140000 0
0.480000 0.140000 0
0.500000 0.140000 0
0.520000 0.140000 0
0.540000 0.140000 0
0.560000 0.140000 0
0.580000 0.140000 0
0.600000 0.140000 0
0.620000 0.140000 0
0.640000 0.140000 0
0.660000 0.140000 0
0.680000 0.140000 0
0.700000 0.140000 0
0.720000 0.140000 0
0.740000 0.140000 0
0.760000 0.140000 0
0.780000 0.140000 0
0.800000 0.140000 0
0.820000 0.140000 0
0.840000 0.140000 0
0.860000 0.140000 0
0.880000 0.140000 0
0.900000 0.140000 0
0.920000 0.140000 0
0.940000 0.140000 0
0.960000 0.140000 0
0.980000 0.140000 0
1.000000 0.140000 0
0.000000 0.160000 0
0.020000 0.160000 0
0.040000 0.160000 0
0.060000 0.160000 0
0.080000 0.160000 0
0.100000 0.160000 0
0.120000 0.160000 0
0.140000 0.160000 0
0.160000 0.160000 0
0.180000 0.160000 0
0.200000 0.160000 0
0.220000 0.160000 0
0.240000 0.160000 0
0.260000 0.160000 0
0.280000 0.160000 0
0.300000 0.160000 0
0.320000 0.160000 0
0.340000 0.160000 0
0.360000 0.160000 0
0.380000 0.160000 0
0.400000 0.160000 0
0.420000 0.160000 0
0.440000 0.160000 0
0.460000 0.160000 0
0.480000 0.160000 0
0.500000 0.160000 0
0.520000 0.160000 0
0.540000 0.160000 0
0.560000 0.160000 0
0.580000 0.160000 0
0.600000 0.160000 0
0.620000 0.160000 0
0.640000 0.160000 0
0.660000 0.160000 0
0.680000 0.160000 0
0.700000 0.160000 0
0.720000 0.160000 0
0.740000 0.160000 0
0.760000 0.160000 0
0.780000 0.160000 0
0.800000 0.160000 0
0.820000 0.160000 0
0.840000 0.160000 0
0.860000 0.160000 0
0.880000 0.160000 0
0.900000 0.160000 0
0.920000 0.160000 0
0.940000 0.160000 0
0.960000 0.160000 0
0.980000 0.160000 0
1.000000 0.160000 0
0.000000 0.180000 0
0.020000 0.180000 0
0.040000 0.180000 0
0.060000 0.180000 0
0.080000 0.180000 0
0.100000 0.180000 0
0.120000 0.180000 0
0.140000 0.180000 0
0.160000 0.180000 0
0.180000 0.180000 0
0.200000 0.180000 0
0.220000 0.180000 0
0.240000 0.180000 0
0.260000 0.180000 0
0.280000 0.180000 0
0.300000 0.180000 0
0.320000 0.180000 0
0.340000 0.180000 0
0.360000 0.180000 0
0.380000 0.180000 0
0.400000 0.180000 0
0.420000 0.180000 0
0.440000 0.180000 0
0.460000 0.180000 0
0.480000 0.180000 0
0.500000 0.180000 0
0.520000 0.180000 0
0.540000 0.180000 0
0.560000 0.180000 0
0.580000 0.180000 0
0.600000 0.180000 0
0.620000 0.180000 0
[...]
POINT_DATA 2601 

VECTORS velocity float
0.000000 0.000000 0
0.000000 0.000000 0
0.000001 0.000000 0
0.000000 0.000000 0
-0.000000 0.000000 0
-0.000001 0.000000 0
-0.000001 0.000000 0
-0.000001 0.000000 0
-0.000001 0.000000 0
-0.000000 0.000000 0
-0.000000 0.000000 0
-0.000000 0.000000 0
-0.000001 0.000000 0
-0.000001 0.000000 0
-0.000001 0.000000 0
-0.000001 0.000000 0
-0.000001 0.000000 0
-0.000001 0.000000 0
-0.000001 0.000000 0
-0.000001 0.000000 0
-0.000000 0.000000 0
-0.000000 0.000000 0
0.000000 0.000000 0
0.000000 0.000000 0
0.000000 0.000000 0
0.000001 0.000000 0
0.000001 0.000000 0
0.000001 0.000000 0
0.000001 0.000000 0
0.000000 0.000000 0
0.000000 0.000000 0
0.000000 0.000000 0
0.000000 0.000000 0
0.000000 0.000000 0
0.000000 0.000000 0
0.000000 0.000000 0
0.000000 0.000000 0
0.000000 0.000000 0
0.000000 0.000000 0
0.000000 0.000000 0
0.000000 0.000000 0
0.000000 0.000000 0
0.000000 0.000000 0
0.000000 0.000000 0
0.000000 0.000000 0
0.000000 0.000000 0
0.000000 0.000000 0
0.000000 0.000000 0
0.000000 0.000000 0
-0.000000 0.000000 0
0.000000 0.000000 0
0.000000 0.000000 0
-0.001836 0.001955 0
-0.007259 0.003906 0
-0.014395 0.004415 0
-0.021139 0.003635 0
-0.026163 0.002216 0
-0.028971 0.000665 0
-0.029526 -0.000832 0
-0.027910 -0.002267 0
-0.024186 -0.003650 0
-0.018426 -0.004960 0
-0.010744 -0.006126 0
-0.001340 -0.007009 0
0.009459 -0.007554 0
0.021105 -0.007722 0
0.033035 -0.007452 0
0.044657 -0.006752 0
0.055313 -0.005673 0
0.064447 -0.004320 0
0.071572 -0.002810 0
0.076381 -0.001291 0
0.078776 0.000106 0
0.078857 0.001331 0
0.076908 0.002367 0
0.073279 0.003191 0
0.068338 0.003801 0
0.062455 0.004197 0
0.055992 0.004385 0
0.049291 0.004375 0
0.042657 0.004192 0
0.036346 0.003868 0
0.030554 0.003448 0
0.025405 0.002976 0
0.020959 0.002494 0
0.017218 0.002037 0
0.014137 0.001629 0
0.011639 0.001283 0
0.009635 0.001004 0
0.008025 0.000789 0
0.006719 0.000634 0
0.005632 0.000528 0
0.004696 0.000462 0
0.003856 0.000424 0
0.003076 0.000402 0
0.002341 0.000384 0
0.001653 0.000355 0
0.001035 0.000304 0
0.000527 0.000223 0
0.000174 0.000113 0
0.000006 0.000007 0
0.000000 0.000000 0
0.000000 0.000000 0
-0.003808 0.007261 0
-0.012846 0.012558 0
-0.024191 0.013878 0
-0.035031 0.011767 0
-0.043578 0.007831 0
-0.049088 0.003363 0
-0.051414 -0.001061 0
-0.050655 -0.005339 0
-0.046922 -0.009483 0
-0.040326 -0.013442 0
-0.031010 -0.017086 0
-0.019164 -0.020204 0
-0.005035 -0.022446 0
0.010912 -0.023577 0
0.028095 -0.023553 0
0.045729 -0.022279 0
0.062984 -0.019791 0
0.079040 -0.016260 0
0.092965 -0.011935 0
0.103979 -0.007204 0
0.111500 -0.002476 0
0.115205 0.001868 0
0.115187 0.005578 0
0.111966 0.008570 0
0.106184 0.010824 0
0.098508 0.012345 0
0.089583 0.013164 0
0.080000 0.013335 0
0.070278 0.012944 0
0.060845 0.012103 0
0.052026 0.010941 0
0.044038 0.009594 0
0.037004 0.008187 0
0.030956 0.006823 0
0.025858 0.005579 0
0.021622 0.004502 0
0.018132 0.003614 0
0.015256 0.002916 0
0.012864 0.002393 0
0.010835 0.002024 0
0.009066 0.001777 0
0.007476 0.001620 0
0.006009 0.001515 0
0.004638 0.001424 0
0.003365 0.001306 0
0.002220 0.001126 0
0.001256 0.000862 0
0.000538 0.000521 0
0.000117 0.000174 0
0.000000 0.000000 0
0.000000 0.000000 0
-0.005017 0.014801 0
-0.016353 0.024287 0
-0.030375 0.026599 0
-0.043965 0.023022 0
-0.055200 0.016274 0
-0.063273 0.008502 0
-0.068010 0.000737 0
-0.069500 -0.006759 0
-0.067934 -0.013979 0
-0.063475 -0.020873 0
-0.056267 -0.027289 0
-0.046462 -0.032986 0
-0.034222 -0.037631 0
-0.019657 -0.040852 0
-0.003046 -0.042269 0
0.015186 -0.041641 0
0.034523 -0.038984 0
0.054097 -0.034300 0
0.072933 -0.027749 0
0.090019 -0.019826 0
0.104256 -0.011120 0
0.114610 -0.002356 0
0.120448 0.005605 0
0.121602 0.012194 0
0.118771 0.017258 0
0.112865 0.020799 0
0.104787 0.022893 0
0.095360 0.023680 0
0.085300 0.023346 0
0.075189 0.022121 0
0.065466 0.020255 0
0.056440 0.017997 0
0.048300 0.015577 0
0.041132 0.013184 0
0.034940 0.010963 0
0.029662 0.009009 0
0.025199 0.007370 0
0.021426 0.006058 0
0.018213 0.005055 0
0.015433 0.004326 0
0.012978 0.003821 0
0.010757 0.003481 0
0.008708 0.003239 0
0.006797 0.003028 0
0.005022 0.002774 0
0.003413 0.002414 0
0.002028 0.001905 0
0.000946 0.001253 0
0.000248 0.000545 0
0.000000 0.000000 0
0.000000 0.000000 0
-0.005583 0.023612 0
-0.018170 0.037915 0
-0.033828 0.041490 0
-0.049317 0.036592 0
-0.062670 0.027141 0
-0.073070 0.016175 0
-0.080348 0.005166 0
-0.084587 -0.005415 0
-0.086009 -0.015508 0
-0.084816 -0.025110 0
-0.081154 -0.034101 0
-0.075133 -0.042250 0
-0.066838 -0.049251 0
-0.056317 -0.054753 0
-0.043597 -0.058396 0
-0.028688 -0.059848 0
-0.011730 -0.058702 0
0.006871 -0.054670 0
0.026664 -0.047857 0
0.046837 -0.038527 0
0.066154 -0.027068 0
0.083265 -0.014325 0
0.096930 -0.001414 0
0.105911 0.010246 0
0.109480 0.019561 0
0.108590 0.026330 0
0.104313 0.030668 0
0.097673 0.032821 0
0.089590 0.033115 0
0.080810 0.031938 0
0.071904 0.029690 0
0.063288 0.026760 0
0.055241 0.023494 0
0.047925 0.020183 0
0.041411 0.017049 0
0.035694 0.014243 0
0.030719 0.011850 0
0.026399 0.009902 0
0.022628 0.008386 0
0.019301 0.007259 0
0.016318 0.006454 0
0.013598 0.005890 0
0.011078 0.005475 0
0.008725 0.005109 0
0.006531 0.004690 0
0.004523 0.004120 0
0.002762 0.003329 0
0.001339 0.002302 0
0.000373 0.001120 0
0.000000 0.000000 0
0.000000 -0.000000 0
-0.005702 0.032970 0
-0.018729 0.052532 0
-0.035213 0.057746 0
-0.051949 0.051865 0
-0.066939 0.040028 0
-0.079334 0.026181 0
-0.088960 0.012254 0
-0.095904 -0.001098 0
-0.100316 -0.013752 0
-0.102425 -0.025728 0
-0.102392 -0.036973 0
-0.100307 -0.047302 0
-0.096214 -0.056447 0
-0.090117 -0.064093 0
-0.081993 -0.069898 0
-0.071802 -0.073508 0
-0.059518 -0.074542 0
-0.045037 -0.072694 0
-0.028363 -0.067716 0
-0.009803 -0.059317 0
0.010083 -0.047548 0
0.030501 -0.033133 0
0.050127 -0.017041 0
0.067206 -0.000357 0
0.079790 0.014580 0
0.086748 0.025966 0
0.088990 0.033809 0
0.087592 0.038403 0
0.083656 0.040209 0
0.078080 0.039807 0
0.071574 0.037778 0
0.064691 0.034661 0
0.057829 0.030939 0
0.051255 0.027014 0
0.045133 0.023195 0
0.039543 0.019701 0
0.034502 0.016665 0
0.029982 0.014149 0
0.025928 0.012153 0
0.022270 0.010636 0
0.018937 0.009524 0
0.015865 0.008721 0
0.013003 0.008112 0
0.010320 0.007575 0
0.007806 0.006975 0
0.005483 0.006183 0
0.003410 0.005089 0
0.001693 0.003641 0
0.000487 0.001883 0
0.000000 0.000000 0
0.000000 -0.000000 0
-0.005516 0.042340 0
-0.018369 0.067427 0
-0.035028 0.074711 0
-0.052459 0.068318 0
-0.068645 0.054527 0
-0.082662 0.038197 0
-0.094297 0.021736 0
-0.103616 0.005940 0
-0.110728 -0.008988 0
-0.115795 -0.023035 0
-0.119008 -0.036219 0
-0.120465 -0.048429 0
-0.120200 -0.059441 0
-0.118208 -0.068973 0
-0.114453 -0.076710 0
-0.108870 -0.082322 0
-0.101371 -0.085467 0
-0.091813 -0.085826 0
-0.080091 -0.083092 0
-0.066095 -0.076973 0
-0.049675 -0.067372 0
-0.030939 -0.054369 0
-0.010561 -0.038119 0
0.010396 -0.019417 0
0.030572 0.000019 0
0.047301 0.017130 0
0.058343 0.029824 0
0.064468 0.038156 0
0.066818 0.042627 0
0.066323 0.044019 0
0.063820 0.043080 0
0.060023 0.040505 0
0.055473 0.036929 0
0.050567 0.032879 0
0.045591 0.028762 0
0.040738 0.024874 0
0.036121 0.021411 0
0.031798 0.018476 0
0.027779 0.016099 0
0.024051 0.014250 0
0.020586 0.012859 0
0.017350 0.011823 0
0.014309 0.011020 0
0.011441 0.010307 0
0.008738 0.009527 0
0.006215 0.008515 0
0.003928 0.007118 0
0.001989 0.005225 0
0.000588 0.002813 0
0.000000 0.000000 0
0.000000 -0.000000 0
-0.005128 0.051337 0
-0.017350 0.082044 0
-0.033658 0.091838 0
-0.051307 0.085484 0
-0.068281 0.070231 0
-0.083544 0.051832 0
-0.096806 0.033207 0
-0.108111 0.015332 0
-0.117564 -0.001574 0
-0.125228 -0.017449 0
-0.131267 -0.032302 0
-0.135822 -0.046109 0
-0.138935 -0.058703 0
-0.140597 -0.069840 0
-0.140768 -0.079236 0
-0.139374 -0.086590 0
-0.136310 -0.091601 0
-0.131434 -0.093975 0
-0.124580 -0.093435 0
-0.115529 -0.089734 0
-0.104024 -0.082703 0
-0.089894 -0.072247 0
-0.073054 -0.058377 0
-0.053500 -0.041490 0
-0.031783 -0.022324 0
-0.009287 -0.001806 0
0.010962 0.016641 0
0.026645 0.029928 0
0.037354 0.038354 0
0.043838 0.042805 0
0.047041 0.044078 0
0.047824 0.043008 0
0.046858 0.040395 0
0.044687 0.036895 0
0.041747 0.033024 0
0.038369 0.029170 0
0.034790 0.025605 0
0.031168 0.022491 0
0.027605 0.019899 0
0.024162 0.017829 0
0.020865 0.016226 0
0.017722 0.014998 0
0.014730 0.014021 0
0.011881 0.013147 0
0.009170 0.012202 0
0.006610 0.010993 0
0.004249 0.009315 0
0.002199 0.006981 0
0.000670 0.003873 0
0.000000 0.000000 0
0.000000 -0.000000 0
-0.004611 0.059689 0
-0.015880 0.095958 0
-0.031418 0.108669 0
-0.048869 0.102943 0
-0.066257 0.086764 0
-0.082417 0.066721 0
-0.096954 0.046301 0
-0.109876 0.026696 0
-0.121288 0.008128 0
-0.131248 -0.009331 0
-0.139787 -0.025623 0
-0.147074 -0.040761 0
-0.153176 -0.054666 0
-0.158087 -0.067140 0
-0.161757 -0.077935 0
-0.164101 -0.086781 0
-0.165002 -0.093407 0
-0.164312 -0.097557 0
-0.161853 -0.098997 0
-0.157400 -0.097529 0
-0.150685 -0.093008 0
-0.141421 -0.085339 0
-0.129294 -0.074513 0
-0.114010 -0.060688 0
-0.095542 -0.044194 0
-0.074131 -0.025615 0
-0.050308 -0.006108 0
-0.027117 0.011764 0
-0.007329 0.025434 0
0.007745 0.034332 0
0.018540 0.039094 0
0.025639 0.040689 0
0.029766 0.040066 0
0.031648 0.037989 0
0.031879 0.035079 0
0.030948 0.031831 0
0.029230 0.028612 0
0.027008 0.025661 0
0.024496 0.023105 0
0.021843 0.020991 0
0.019149 0.019298 0
0.016479 0.017958 0
0.013866 0.016862 0
0.011327 0.015868 0
0.008870 0.014798 0
0.006506 0.013436 0
0.004273 0.011529 0
0.002272 0.008804 0
0.000719 0.005012 0
0.000000 0.000000 0
0.000000 -0.000000 0
-0.004022 0.067217 0
-0.014125 0.108853 0
-0.028571 0.124828 0
-0.045463 0.120323 0
-0.062926 0.103779 0
-0.079667 0.082527 0
-0.095159 0.060664 0
-0.109360 0.039664 0
-0.122383 0.019798 0
-0.134317 0.001051 0
-0.145135 -0.016475 0
-0.154866 -0.032719 0
-0.163634 -0.047690 0
-0.171445 -0.061259 0
-0.178239 -0.073223 0
-0.183912 -0.083347 0
-0.188327 -0.091390 0
-0.191320 -0.097123 0
-0.192699 -0.100347 0
-0.192247 -0.100902 0
-0.189714 -0.098683 0
-0.184818 -0.093638 0
-0.177240 -0.085788 0
-0.166642 -0.075241 0
-0.152747 -0.062203 0
-0.135364 -0.047040 0
-0.114532 -0.030373 0
-0.090844 -0.013051 0
-0.066415 0.003492 0
-0.043717 0.016936 0
-0.024667 0.026184 0
-0.009919 0.031782 0
0.000947 0.034386 0
0.008531 0.034782 0
0.013438 0.033724 0
0.016267 0.031819 0
0.017550 0.029545 0
0.017715 0.027226 0
0.017107 0.025065 0
0.015985 0.023175 0
0.014535 0.021590 0
0.012890 0.020282 0
0.011139 0.019173 0
0.009334 0.018143 0
0.007504 0.017023 0
0.005666 0.015589 0
0.003848 0.013548 0
0.002130 0.010535 0
0.000712 0.006145 0
0.000000 0.000000 0
0.000000 0.000000 0
-0.003405 0.073815 0
-0.012222 0.120509 0
-0.025341 0.140008 0
-0.041368 0.137297 0
-0.058598 0.120967 0
-0.075635 0.098952 0
-0.091802 0.075992 0
-0.106989 0.053920 0
-0.121306 0.033086 0
-0.134866 0.013423 0
-0.147692 -0.005073 0
-0.159661 -0.022263 0
-0.170822 -0.038088 0
-0.181221 -0.052536 0
-0.190799 -0.065468 0
-0.199436 -0.076692 0
-0.206967 -0.085999 0
-0.213199 -0.093185 0
-0.217919 -0.098069 0
-0.220894 -0.100515 0
-0.221886 -0.100437 0
-0.220643 -0.097813 0
-0.216899 -0.092689 0
-0.210379 -0.085181 0
-0.200819 -0.075472 0
-0.187980 -0.063831 0
-0.171734 -0.050629 0
-0.152188 -0.036353 0
-0.129735 -0.021693 0
-0.105521 -0.007416 0
-0.081799 0.005296 0
-0.060255 0.015076 0
-0.042063 0.021617 0
-0.027631 0.025498 0
-0.016609 0.027344 0
-0.008487 0.027720 0
-0.002730 0.027165 0
0.001161 0.026103 0
0.003648 0.024836 0
0.005102 0.023563 0
0.005808 0.022393 0
0.005979 0.021354 0
0.005776 0.020418 0
0.005304 0.019502 0
0.004626 0.018466 0
0.003772 0.017092 0
0.002767 0.015064 0
0.001661 0.011941 0
0.000611 0.007142 0
0.000000 0.000000 0
0.000000 0.000000 0
-0.002793 0.079440 0
-0.010278 0.130790 0
-0.021915 0.153974 0
-0.036825 0.153579 0
-0.053544 0.138045 0
-0.070620 0.115731 0
-0.087217 0.092017 0
-0.103123 0.069169 0
-0.118438 0.047677 0
-0.133295 0.027438 0
-0.147755 0.008320 0
-0.161744 -0.009590 0
-0.175081 -0.026131 0
-0.187785 -0.041282 0
-0.199826 -0.055009 0
-0.211080 -0.067179 0
-0.221364 -0.077626 0
-0.230455 -0.086171 0
-0.238103 -0.092652 0
-0.244051 -0.096934 0
-0.248043 -0.098934 0
-0.249836 -0.098626 0
-0.249205 -0.096052 0
-0.245945 -0.091321 0
-0.239877 -0.084603 0
-0.230853 -0.076125 0
-0.218777 -0.066165 0
-0.203644 -0.055050 0
-0.185590 -0.043175 0
-0.165014 -0.030999 0
-0.142514 -0.019082 0
-0.119337 -0.007954 0
-0.097091 0.001763 0
-0.076912 0.009328 0
-0.059494 0.014580 0
-0.045120 0.017940 0
-0.033658 0.019896 0
-0.024686 0.020848 0
-0.017748 0.021125 0
-0.012441 0.021016 0
-0.008420 0.020712 0
-0.005396 0.020313 0
-0.003135 0.019848 0
-0.001470 0.019293 0
-0.000295 0.018555 0
0.000447 0.017449 0
0.000780 0.015659 0
0.000725 0.012691 0
0.000367 0.007807 0
0.000000 0.000000 0
0.000000 0.000001 0
-0.002211 0.084094 0
-0.008378 0.139631 0
-0.018449 0.166554 0
-0.032044 0.168925 0
-0.048004 0.154760 0
-0.064883 0.132625 0
-0.081689 0.108496 0
-0.098084 0.085142 0
-0.114125 0.063259 0
-0.129961 0.042740 0
-0.145685 0.023375 0
-0.161294 0.005063 0
-0.176599 -0.012047 0
-0.191369 -0.027790 0
-0.205572 -0.042172 0
-0.219107 -0.055154 0
-0.231793 -0.066625 0
-0.243390 -0.076447 0
-0.253619 -0.084474 0
-0.262188 -0.090575 0
-0.268811 -0.094651 0
-0.273225 -0.096651 0
-0.275206 -0.096580 0
-0.274582 -0.094508 0
-0.271233 -0.090564 0
-0.265095 -0.084932 0
-0.256162 -0.077837 0
-0.244483 -0.069540 0
-0.230170 -0.060323 0
-0.213433 -0.050493 0
-0.194594 -0.040381 0
-0.174158 -0.030347 0
-0.152708 -0.020809 0
-0.131100 -0.012099 0
-0.110415 -0.004448 0
-0.091430 0.001884 0
-0.074567 0.006730 0
-0.059986 0.010194 0
-0.047677 0.012591 0
-0.037458 0.014235 0
-0.029025 0.015347 0
-0.022067 0.016069 0
-0.016321 0.016492 0
-0.011587 0.016663 0
-0.007727 0.016549 0
-0.004657 0.016017 0
-0.002347 0.014786 0
-0.000813 0.012353 0
-0.000071 0.007868 0
0.000000 -0.000000 0
0.000000 0.000001 0
-0.001674 0.087819 0
-0.006584 0.147028 0
-0.015069 0.177639 0
-0.027207 0.183134 0
-0.042192 0.170883 0
-0.058652 0.149415 0
-0.075467 0.125219 0
-0.092148 0.101606 0
-0.108680 0.079554 0
-0.125208 0.058997 0
-0.141848 0.039653 0
-0.158623 0.021324 0
-0.175460 0.003944 0
-0.192075 -0.012309 0
-0.208188 -0.027270 0
-0.223688 -0.040957 0
-0.238429 -0.053344 0
-0.252184 -0.064346 0
-0.264667 -0.073853 0
-0.275561 -0.081742 0
-0.284547 -0.087897 0
-0.291326 -0.092230 0
-0.295647 -0.094695 0
-0.297321 -0.095295 0
-0.296235 -0.094089 0
-0.292355 -0.091195 0
-0.285724 -0.086777 0
-0.276452 -0.081042 0
-0.264704 -0.074224 0
-0.250693 -0.066575 0
-0.234672 -0.058357 0
-0.216947 -0.049840 0
-0.197885 -0.041296 0
-0.177972 -0.032964 0
-0.157687 -0.025090 0
-0.137536 -0.017909 0
-0.118080 -0.011547 0
-0.099861 -0.006042 0
-0.083233 -0.001403 0
-0.068324 0.002363 0
-0.055137 0.005321 0
-0.043593 0.007609 0
-0.033591 0.009368 0
-0.025001 0.010699 0
-0.017701 0.011625 0
-0.011598 0.012069 0
-0.006675 0.011816 0
-0.003002 0.010415 0
-0.000729 0.006993 0
0.000000 -0.000000 0
0.000000 0.000001 0
-0.001192 0.090679 0
-0.004937 0.153025 0
-0.011872 0.187177 0
-0.022466 0.196047 0
-0.036290 0.186205 0
-0.052125 0.165901 0
-0.068762 0.141993 0
-0.085549 0.118356 0
-0.102368 0.096318 0
-0.119335 0.075907 0
-0.136577 0.056790 0
-0.154139 0.038675 0
-0.171973 0.021405 0
-0.189945 0.004938 0
-0.207706 -0.010560 0
-0.224924 -0.024913 0
-0.241397 -0.038129 0
-0.256962 -0.050208 0
-0.271364 -0.061097 0
-0.284287 -0.070695 0
-0.295395 -0.078886 0
-0.304357 -0.085550 0
-0.310878 -0.090585 0
-0.314722 -0.093921 0
-0.315736 -0.095531 0
-0.313856 -0.095443 0
-0.309116 -0.093740 0
-0.301636 -0.090559 0
-0.291609 -0.086081 0
-0.279282 -0.080525 0
-0.264940 -0.074127 0
-0.248886 -0.067134 0
-0.231436 -0.059784 0
-0.212923 -0.052298 0
-0.193672 -0.044884 0
-0.174042 -0.037723 0
-0.154411 -0.030945 0
-0.135120 -0.024654 0
-0.116463 -0.018946 0
-0.098699 -0.013861 0
-0.082073 -0.009384 0
-0.066756 -0.005477 0
-0.052850 -0.002099 0
-0.040384 0.000773 0
-0.029367 0.003146 0
-0.019832 0.004991 0
-0.011873 0.006190 0
-0.005676 0.006408 0
-0.001560 0.004865 0
0.000000 -0.000000 0
0.000000 0.000001 0
-0.000771 0.092756 0
-0.003465 0.157707 0
-0.008927 0.195167 0
-0.017943 0.207551 0
-0.030457 0.200542 0
-0.045474 0.181889 0
-0.061752 0.158644 0
-0.078479 0.135212 0
-0.095406 0.113339 0
-0.112593 0.093205 0
-0.130162 0.074457 0
-0.148173 0.056720 0
-0.166598 0.039750 0
-0.185329 0.023424 0
-0.204187 0.007709 0
-0.222797 -0.007267 0
-0.240777 -0.021306 0
-0.257829 -0.034379 0
-0.273806 -0.046528 0
-0.288436 -0.057710 0
-0.301398 -0.067827 0
-0.312348 -0.076748 0
-0.320952 -0.084331 0
-0.326920 -0.090437 0
-0.330029 -0.094955 0
-0.330149 -0.097814 0
-0.327249 -0.098998 0
-0.321403 -0.098550 0
-0.312783 -0.096578 0
-0.301638 -0.093243 0
-0.288277 -0.088754 0
-0.273041 -0.083345 0
-0.256280 -0.077258 0
-0.238336 -0.070729 0
-0.219525 -0.063972 0
-0.200152 -0.057170 0
-0.180497 -0.050469 0
-0.160811 -0.043989 0
-0.141333 -0.037824 0
-0.122302 -0.032028 0
-0.103928 -0.026622 0
-0.086399 -0.021614 0
-0.069873 -0.017004 0
-0.054500 -0.012783 0
-0.040440 -0.008926 0
-0.027888 -0.005425 0
-0.017095 -0.002341 0
-0.008421 0.000102 0
-0.002429 0.001317 0
0.000000 -0.000000 0
0.000000 0.000001 0
-0.000412 0.094144 0
-0.002181 0.161181 0
-0.006281 0.201653 0
-0.013732 0.217576 0
-0.024827 0.213737 0
-0.038847 0.197197 0
-0.054586 0.174999 0
-0.071094 0.152010 0
-0.087968 0.130431 0
-0.105186 0.110663 0
-0.122846 0.092369 0
-0.141012 0.075111 0
-0.159672 0.058562 0
-0.178741 0.042527 0
-0.198068 0.026908 0
-0.217447 0.011677 0
-0.236520 -0.003096 0
-0.254860 -0.017179 0
-0.272099 -0.030489 0
-0.288093 -0.043103 0
-0.302589 -0.054974 0
-0.315272 -0.065996 0
-0.325792 -0.076014 0
-0.333810 -0.084844 0
-0.339034 -0.092301 0
-0.341247 -0.098223 0
-0.340326 -0.102485 0
-0.336255 -0.105025 0
-0.329133 -0.105847 0
-0.319166 -0.105030 0
-0.306648 -0.102724 0
-0.291935 -0.099130 0
-0.275418 -0.094489 0
-0.257490 -0.089054 0
-0.238522 -0.083068 0
-0.218852 -0.076751 0
-0.198773 -0.070285 0
-0.178535 -0.063817 0
-0.158356 -0.057455 0
-0.138436 -0.051266 0
-0.118949 -0.045287 0
-0.100060 -0.039532 0
-0.081933 -0.033999 0
-0.064751 -0.028660 0
-0.048723 -0.023466 0
-0.034103 -0.018354 0
-0.021240 -0.013277 0
-0.010648 -0.008259 0
-0.003141 -0.003556 0
0.000000 -0.000000 0
0.000000 0.000001 0
-0.000118 0.094937 0
-0.001089 0.163574 0
-0.003957 0.206716 0
-0.009897 0.226097 0
-0.019507 0.225659 0
-0.032371 0.211649 0
-0.047391 0.190890 0
-0.063519 0.168594 0
-0.080190 0.147430 0
-0.097273 0.128083 0
-0.114821 0.110283 0
-0.132893 0.093547 0
-0.151487 0.077480 0
-0.170535 0.061820 0
-0.189911 0.046415 0
-0.209447 0.031185 0
-0.228924 0.016108 0
-0.248038 0.001201 0
-0.266314 -0.013295 0
-0.283383 -0.027220 0
-0.299066 -0.040647 0
-0.313152 -0.053546 0
-0.325327 -0.065793 0
-0.335234 -0.077194 0
-0.342525 -0.087517 0
-0.346899 -0.096522 0
-0.348129 -0.103990 0
-0.346090 -0.109743 0
-0.340771 -0.113666 0
-0.332287 -0.115728 0
-0.320873 -0.115985 0
-0.306861 -0.114574 0
-0.290650 -0.111703 0
-0.272678 -0.107625 0
-0.253377 -0.102609 0
-0.233155 -0.096918 0
-0.212369 -0.090786 0
-0.191322 -0.084406 0
-0.170266 -0.077923 0
-0.149410 -0.071435 0
-0.128929 -0.064998 0
-0.108980 -0.058630 0
-0.089722 -0.052313 0
-0.071330 -0.045994 0
-0.054018 -0.039574 0
-0.038067 -0.032908 0
-0.023875 -0.025796 0
-0.012054 -0.017996 0
-0.003580 -0.009331 0
0.000000 -0.000000 0
0.000000 0.000001 0
0.000122 0.095232 0
-0.000189 0.165019 0
-0.001962 0.210461 0
-0.006478 0.233126 0
-0.014576 0.236212 0
-0.026152 0.225082 0
-0.040277 0.206147 0
-0.055859 0.184809 0
-0.072180 0.164184 0
-0.088976 0.145293 0
-0.106237 0.127990 0
-0.124005 0.111778 0
-0.142281 0.096204 0
-0.161009 0.080951 0
-0.180087 0.065820 0
-0.199375 0.050691 0
-0.218702 0.035495 0
-0.237855 0.020211 0
-0.256590 0.004855 0
-0.274438 -0.010351 0
-0.291014 -0.025204 0
-0.306130 -0.039734 0
-0.319607 -0.053931 0
-0.331126 -0.067645 0
-0.340316 -0.080636 0
-0.346815 -0.092619 0
-0.350303 -0.103295 0
-0.350536 -0.112384 0
-0.347376 -0.119649 0