# vtk DataFile Version 2.0
generated by CFD-lab course output (written by Tobias Neckel) 
ASCII

DATASET STRUCTURED_GRID
DIMENSIONS  51 51 1 
POINTS 2601 float

0.000000 0.000000 0
0.020000 0.000000 0
0.040000 0.000000 0
0.060000 0.000000 0
0.080000 0.000000 0
0.100000 0.000000 0
0.120000 0.000000 0
0.140000 0.000000 0
0.160000 0.000000 0
0.180000 0.000000 0
0.200000 0.000000 0
0.220000 0.000000 0
0.240000 0.000000 0
0.260000 0.000000 0
0.280000 0.000000 0
0.300000 0.000000 0
0.320000 0.000000 0
0.340000 0.000000 0
0.360000 0.000000 0
0.380000 0.000000 0
0.400000 0.000000 0
0.420000 0.000000 0
0.440000 0.000000 0
0.460000 0.000000 0
0.480000 0.000000 0
0.500000 0.000000 0
0.520000 0.000000 0
0.540000 0.000000 0
0.560000 0.000000 0
0.580000 0.000000 0
0.600000 0.000000 0
0.620000 0.000000 0
0.640000 0.000000 0
0.660000 0.000000 0
0.680000 0.000000 0
0.700000 0.000000 0
0.720000 0.000000 0
0.740000 0.000000 0
0.760000 0.000000 0
0.780000 0.000000 0
0.800000 0.000000 0
0.820000 0.000000 0
0.840000 0.000000 0
0.860000 0.000000 0
0.880000 0.000000 0
0.900000 0.000000 0
0.920000 0.000000 0
0.940000 0.000000 0
0.960000 0.000000 0
0.980000 0.000000 0
1.000000 0.000000 0
0.000000 0.020000 0
0.020000 0.020000 0
0.040000 0.020000 0
0.060000 0.020000 0
0.080000 0.020000 0
0.100000 0.020000 0
0.120000 0.020000 0
0.140000 0.020000 0
0.160000 0.020000 0
0.180000 0.020000 0
0.200000 0.020000 0
0.220000 0.020000 0
0.240000 0.020000 0
0.260000 0.020000 0
0.280000 0.020000 0
0.300000 0.020000 0
0.320000 0.020000 0
0.340000 0.020000 0
0.360000 0.020000 0
0.380000 0.020000 0
0.400000 0.020000 0
0.420000 0.020000 0
0.440000 0.020000 0
0.460000 0.020000 0
0.480000 0.020000 0
0.500000 0.020000 0
0.520000 0.020000 0
0.540000 0.020000 0
0.560000 0.020000 0
0.580000 0.020000 0
0.600000 0.020000 0
0.620000 0.020000 0
0.640000 0.020000 0
0.660000 0.020000 0
0.680000 0.020000 0
0.700000 0.020000 0
0.720000 0.020000 0
0.740000 0.020000 0
0.760000 0.020000 0
0.780000 0.020000 0
0.800000 0.020000 0
0.820000 0.020000 0
0.840000 0.020000 0
0.860000 0.020000 0
0.880000 0.020000 0
0.900000 0.020000 0
0.920000 0.020000 0
0.940000 0.020000 0
0.960000 0.020000 0
0.980000 0.020000 0
1.000000 0.020000 0
0.000000 0.040000 0
0.020000 0.040000 0
0.040000 0.040000 0
0.060000 0.040000 0
0.080000 0.040000 0
0.100000 0.040000 0
0.120000 0.040000 0
0.140000 0.040000 0
0.160000 0.040000 0
0.180000 0.040000 0
0.200000 0.040000 0
0.220000 0.040000 0
0.240000 0.040000 0
0.260000 0.040000 0
0.280000 0.040000 0
0.300000 0.040000 0
0.320000 0.040000 0
0.340000 0.040000 0
0.360000 0.040000 0
0.380000 0.040000 0
0.400000 0.040000 0
0.420000 0.040000 0
0.440000 0.040000 0
0.460000 0.040000 0
0.480000 0.040000 0
0.500000 0.040000 0
0.520000 0.040000 0
0.540000 0.040000 0
0.560000 0.040000 0
0.580000 0.040000 0
0.600000 0.040000 0
0.620000 0.040000 0
0.640000 0.040000 0
0.660000 0.040000 0
0.680000 0.040000 0
0.700000 0.040000 0
0.720000 0.040000 0
0.740000 0.040000 0
0.760000 0.040000 0
0.780000 0.040000 0
0.800000 0.040000 0
0.820000 0.040000 0
0.840000 0.040000 0
0.860000 0.040000 0
0.880000 0.040000 0
0.900000 0.040000 0
0.920000 0.040000 0
0.940000 0.040000 0
0.960000 0.040000 0
0.980000 0.040000 0
1.000000 0.040000 0
0.000000 0.060000 0
0.020000 0.060000 0
0.040000 0.060000 0
0.060000 0.060000 0
0.080000 0.060000 0
0.100000 0.060000 0
0.120000 0.060000 0
0.140000 0.060000 0
0.160000 0.060000 0
0.180000 0.060000 0
0.200000 0.060000 0
0.220000 0.060000 0
0.240000 0.060000 0
0.260000 0.060000 0
0.280000 0.060000 0
0.300000 0.060000 0
0.320000 0.060000 0
0.340000 0.060000 0
0.360000 0.060000 0
0.380000 0.060000 0
0.400000 0.060000 0
0.420000 0.060000 0
0.440000 0.060000 0
0.460000 0.060000 0
0.480000 0.060000 0
0.500000 0.060000 0
0.520000 0.060000 0
0.540000 0.060000 0
0.560000 0.060000 0
0.580000 0.060000 0
0.600000 0.060000 0
0.620000 0.060000 0
0.640000 0.060000 0
0.660000 0.060000 0
0.680000 0.060000 0
0.700000 0.060000 0
0.720000 0.060000 0
0.740000 0.060000 0
0.760000 0.060000 0
0.780000 0.060000 0
0.800000 0.060000 0
0.820000 0.060000 0
0.840000 0.060000 0
0.860000 0.060000 0
0.880000 0.060000 0
0.900000 0.060000 0
0.920000 0.060000 0
0.940000 0.060000 0
0.960000 0.060000 0
0.980000 0.060000 0
1.000000 0.060000 0
0.000000 0.080000 0
0.020000 0.080000 0
0.040000 0.080000 0
0.060000 0.080000 0
0.080000 0.080000 0
0.100000 0.080000 0
0.120000 0.080000 0
0.140000 0.080000 0
0.160000 0.080000 0
0.180000 0.080000 0
0.200000 0.080000 0
0.220000 0.080000 0
0.240000 0.080000 0
0.260000 0.080000 0
0.280000 0.080000 0
0.300000 0.080000 0
0.320000 0.080000 0
0.340000 0.080000 0
0.360000 0.080000 0
0.380000 0.080000 0
0.400000 0.080000 0
0.420000 0.080000 0
0.440000 0.080000 0
0.460000 0.080000 0
0.480000 0.080000 0
0.500000 0.080000 0
0.520000 0.080000 0
0.540000 0.080000 0
0.560000 0.080000 0
0.580000 0.080000 0
0.600000 0.080000 0
0.620000 0.080000 0
0.640000 0.080000 0
0.660000 0.080000 0
0.680000 0.080000 0
0.700000 0.080000 0
0.720000 0.080000 0
0.740000 0.080000 0
0.760000 0.080000 0
0.780000 0.080000 0
0.800000 0.080000 0
0.820000 0.080000 0
0.840000 0.080000 0
0.860000 0.080000 0
0.880000 0.080000 0
0.900000 0.080000 0
0.920000 0.080000 0
0.940000 0.080000 0
0.960000 0.080000 0
0.980000 0.080000 0
1.000000 0.080000 0
0.000000 0.100000 0
0.020000 0.100000 0
0.040000 0.100000 0
0.060000 0.100000 0
0.080000 0.100000 0
0.100000 0.100000 0
0.120000 0.100000 0
0.140000 0.100000 0
0.160000 0.100000 0
0.180000 0.100000 0
0.200000 0.100000 0
0.220000 0.100000 0
0.240000 0.100000 0
0.260000 0.100000 0
0.280000 0.100000 0
0.300000 0.100000 0
0.320000 0.100000 0
0.340000 0.100000 0
0.360000 0.100000 0
0.380000 0.100000 0
0.400000 0.100000 0
0.420000 0.100000 0
0.440000 0.100000 0
0.460000 0.100000 0
0.480000 0.100000 0
0.500000 0.100000 0
0.520000 0.100000 0
0.540000 0.100000 0
0.560000 0.100000 0
0.580000 0.100000 0
0.600000 0.100000 0
0.620000 0.100000 0
0.640000 0.100000 0
0.660000 0.100000 0
0.680000 0.100000 0
0.700000 0.100000 0
0.720000 0.100000 0
0.740000 0.100000 0
0.760000 0.100000 0
0.780000 0.100000 0
0.800000 0.100000 0
0.820000 0.100000 0
0.840000 0.100000 0
0.860000 0.100000 0
0.880000 0.100000 0
0.900000 0.100000 0
0.920000 0.100000 0
0.940000 0.100000 0
0.960000 0.100000 0
0.980000 0.100000 0
1.000000 0.100000 0
0.000000 0.120000 0
0.020000 0.120000 0
0.040000 0.120000 0
0.060000 0.120000 0
0.080000 0.120000 0
0.100000 0.120000 0
0.120000 0.120000 0
0.140000 0.120000 0
0.160000 0.120000 0
0.180000 0.120000 0
0.200000 0.120000 0
0.220000 0.120000 0
0.240000 0.120000 0
0.260000 0.120000 0
0.280000 0.120000 0
0.300000 0.120000 0
0.320000 0.120000 0
0.340000 0.120000 0
0.360000 0.120000 0
0.380000 0.120000 0
0.400000 0.120000 0
0.420000 0.120000 0
0.440000 0.120000 0
0.460000 0.120000 0
0.480000 0.120000 0
0.500000 0.120000 0
0.520000 0.120000 0
0.540000 0.120000 0
0.560000 0.120000 0
0.580000 0.120000 0
0.600000 0.120000 0
0.620000 0.120000 0
0.640000 0.120000 0
0.660000 0.120000 0
0.680000 0.120000 0
0.700000 0.120000 0
0.720000 0.120000 0
0.740000 0.120000 0
0.760000 0.120000 0
0.780000 0.120000 0
0.800000 0.120000 0
0.820000 0.120000 0
0.840000 0.120000 0
0.860000 0.120000 0
0.880000 0.120000 0
0.900000 0.120000 0
0.920000 0.120000 0
0.940000 0.120000 0
0.960000 0.120000 0
0.980000 0.120000 0
1.000000 0.120000 0
0.000000 0.140000 0
0.020000 0.140000 0
0.040000 0.140000 0
0.060000 0.140000 0
0.080000 0.140000 0
0.100000 0.140000 0
0.120000 0.140000 0
0.140000 0.140000 0
0.160000 0.140000 0
0.180000 0.140000 0
0.200000 0.140000 0
0.220000 0.140000 0
0.240000 0.140000 0
0.260000 0.140000 0
0.280000 0.140000 0
0.300000 0.140000 0
0.320000 0.140000 0
0.340000 0.140000 0
0.360000 0.140000 0
0.380000 0.140000 0
0.400000 0.140000 0
0.420000 0.140000 0
0.440000 0.140000 0
0.460000 0.140000 0
0.480000 0.140000 0
0.500000 0.140000 0
0.520000 0.140000 0
0.540000 0.140000 0
0.560000 0.140000 0
0.580000 0.140000 0
0.600000 0.140000 0
0.620000 0.140000 0
0.640000 0.140000 0
0.660000 0.140000 0
0.680000 0.140000 0
0.700000 0.140000 0
0.720000 0.140000 0
0.740000 0.140000 0
0.760000 0.140000 0
0.780000 0.140000 0
0.800000 0.140000 0
0.820000 0.140000 0
0.840000 0.140000 0
0.860000 0.140000 0
0.880000 0.140000 0
0.900000 0.140000 0
0.920000 0.140000 0
0.940000 0.140000 0
0.960000 0.140000 0
0.980000 0.140000 0
1.000000 0.140000 0
0.000000 0.160000 0
0.020000 0.160000 0
0.040000 0.160000 0
0.060000 0.160000 0
0.080000 0.160000 0
0.100000 0.160000 0
0.120000 0.160000 0
0.140000 0.160000 0
0.160000 0.160000 0
0.180000 0.160000 0
0.200000 0.160000 0
0.220000 0.160000 0
0.240000 0.160000 0
0.260000 0.160000 0
0.280000 0.160000 0
0.300000 0.160000 0
0.320000 0.160000 0
0.340000 0.160000 0
0.360000 0.160000 0
0.380000 0.160000 0
0.400000 0.160000 0
0.420000 0.160000 0
0.440000 0.160000 0
0.460000 0.160000 0
0.480000 0.160000 0
0.500000 0.160000 0
0.520000 0.160000 0
0.540000 0.160000 0
0.560000 0.160000 0
0.580000 0.160000 0
0.600000 0.160000 0
0.620000 0.160000 0
0.640000 0.160000 0
0.660000 0.160000 0
0.680000 0.160000 0
0.700000 0.160000 0
0.720000 0.160000 0
0.740000 0.160000 0
0.760000 0.160000 0
0.780000 0.160000 0
0.800000 0.160000 0
0.820000 0.160000 0
0.840000 0.160000 0
0.860000 0.160000 0
0.880000 0.160000 0
0.900000 0.160000 0
0.920000 0.160000 0
0.940000 0.160000 0
0.960000 0.160000 0
0.980000 0.160000 0
1.000000 0.160000 0
0.000000 0.180000 0
0.020000 0.180000 0
0.040000 0.180000 0
0.060000 0.180000 0
0.080000 0.180000 0
0.100000 0.180000 0
0.120000 0.180000 0
0.140000 0.180000 0
0.160000 0.180000 0
0.180000 0.180000 0
0.200000 0.180000 0
0.220000 0.180000 0
0.240000 0.180000 0
0.260000 0.180000 0
0.280000 0.180000 0
0.300000 0.180000 0
0.320000 0.180000 0
0.340000 0.180000 0
0.360000 0.180000 0
0.380000 0.180000 0
0.400000 0.180000 0
0.420000 0.180000 0
0.440000 0.180000 0
0.460000 0.180000 0
0.480000 0.180000 0
0.500000 0.180000 0
0.520000 0.180000 0
0.540000 0.180000 0
0.560000 0.180000 0
0.580000 0.180000 0
0.600000 0.180000 0
0.620000 0.180000 0
[...]
POINT_DATA 2601 

VECTORS velocity float
0.000000 0.000000 0
-0.000000 0.000000 0
-0.000001 0.000000 0
-0.000001 0.000000 0
-0.000002 0.000000 0
-0.000003 0.000000 0
-0.000005 0.000000 0
-0.000006 0.000000 0
-0.000007 0.000000 0
-0.000008 0.000000 0
-0.000009 0.000000 0
-0.000009 0.000000 0
-0.000009 0.000000 0
-0.000009 0.000000 0
-0.000008 0.000000 0
-0.000006 0.000000 0
-0.000005 0.000000 0
-0.000003 0.000000 0
-0.000001 0.000000 0
0.000001 0.000000 0
0.000002 0.000000 0
0.000003 0.000000 0
0.000003 0.000000 0
0.000004 0.000000 0
0.000004 0.000000 0
0.000004 0.000000 0
0.000004 0.000000 0
0.000004 0.000000 0
0.000004 0.000000 0
0.000004 0.000000 0
0.000003 0.000000 0
0.000003 0.000000 0
0.000003 0.000000 0
0.000002 0.000000 0
0.000002 0.000000 0
0.000002 0.000000 0
0.000002 0.000000 0
0.000001 0.000000 0
0.000001 0.000000 0
0.000001 0.000000 0
0.000001 0.000000 0
0.000001 0.000000 0
0.000001 0.000000 0
0.000001 0.000000 0
0.000000 0.000000 0
0.000000 0.000000 0
0.000000 0.000000 0
0.000000 0.000000 0
0.000000 0.000000 0
-0.000000 0.000000 0
0.000000 0.000000 0
0.000000 0.000000 0
-0.001706 0.001762 0
-0.006391 0.003287 0
-0.012206 0.003442 0
-0.017227 0.002439 0
-0.020249 0.000865 0
-0.020825 -0.000841 0
-0.018922 -0.002496 0
-0.014637 -0.004035 0
-0.008122 -0.005398 0
0.000401 -0.006482 0
0.010571 -0.007215 0
0.021837 -0.007561 0
0.033651 -0.007451 0
0.045321 -0.006879 0
0.056195 -0.005906 0
0.065634 -0.004627 0
0.073135 -0.003178 0
0.078368 -0.001698 0
0.081212 -0.000319 0
0.081758 0.000901 0
0.080266 0.001952 0
0.077045 0.002825 0
0.072417 0.003519 0
0.066706 0.004033 0
0.060237 0.004361 0
0.053329 0.004501 0
0.046292 0.004456 0
0.039410 0.004244 0
0.032924 0.003894 0
0.027023 0.003447 0
0.021827 0.002948 0
0.017393 0.002439 0
0.013719 0.001957 0
0.010756 0.001526 0
0.008424 0.001159 0
0.006625 0.000861 0
0.005258 0.000631 0
0.004225 0.000461 0
0.003438 0.000343 0
0.002821 0.000268 0
0.002315 0.000224 0
0.001874 0.000203 0
0.001471 0.000193 0
0.001091 0.000185 0
0.000739 0.000169 0
0.000430 0.000139 0
0.000188 0.000091 0
0.000036 0.000032 0
-0.000017 -0.000016 0
0.000000 -0.000000 0
0.000000 0.000000 0
-0.003418 0.006389 0
-0.011182 0.010499 0
-0.020484 0.010835 0
-0.028727 0.008041 0
-0.034267 0.003597 0
-0.036431 -0.001328 0
-0.035147 -0.006189 0
-0.030537 -0.010801 0
-0.022782 -0.015040 0
-0.012095 -0.018695 0
0.001240 -0.021438 0
0.016769 -0.023082 0
0.033777 -0.023486 0
0.051468 -0.022546 0
0.069013 -0.020315 0
0.085409 -0.016942 0
0.099713 -0.012736 0
0.111078 -0.008079 0
0.118887 -0.003392 0
0.122851 0.000945 0
0.123063 0.004712 0
0.119998 0.007848 0
0.114258 0.010338 0
0.106450 0.012180 0
0.097172 0.013377 0
0.086995 0.013945 0
0.076444 0.013919 0
0.065984 0.013368 0
0.056003 0.012387 0
0.046796 0.011098 0
0.038566 0.009630 0
0.031419 0.008108 0
0.025376 0.006637 0
0.020391 0.005296 0
0.016366 0.004132 0
0.013172 0.003166 0
0.010668 0.002400 0
0.008710 0.001820 0
0.007168 0.001404 0
0.005925 0.001123 0
0.004886 0.000947 0
0.003979 0.000845 0
0.003156 0.000784 0
0.002394 0.000732 0
0.001693 0.000662 0
0.001075 0.000552 0
0.000572 0.000395 0
0.000218 0.000205 0
0.000034 0.000036 0
0.000000 0.000000 0
0.000000 0.000001 0
-0.004470 0.012943 0
-0.014256 0.020353 0
-0.025938 0.020987 0
-0.036639 0.016222 0
-0.044584 0.008569 0
-0.049047 0.000038 0
-0.049935 -0.008390 0
-0.047446 -0.016401 0
-0.041784 -0.023842 0
-0.033128 -0.030504 0
-0.021629 -0.036080 0
-0.007413 -0.040099 0
0.009165 -0.042152 0
0.027712 -0.042115 0
0.047473 -0.039847 0
0.067543 -0.035328 0
0.086904 -0.028848 0
0.104319 -0.020873 0
0.118580 -0.012092 0
0.128736 -0.003277 0
0.134142 0.004804 0
0.134743 0.011630 0
0.131281 0.017067 0
0.124607 0.021119 0
0.115583 0.023816 0
0.105022 0.025229 0
0.093647 0.025467 0
0.082079 0.024685 0
0.070820 0.023082 0
0.060249 0.020883 0
0.050632 0.018325 0
0.042122 0.015630 0
0.034780 0.012985 0
0.028586 0.010536 0
0.023462 0.008378 0
0.019287 0.006560 0
0.015917 0.005092 0
0.013203 0.003960 0
0.010999 0.003129 0
0.009175 0.002550 0
0.007620 0.002171 0
0.006250 0.001933 0
0.005006 0.001778 0
0.003856 0.001648 0
0.002799 0.001489 0
0.001855 0.001261 0
0.001063 0.000948 0
0.000469 0.000570 0
0.000111 0.000203 0
0.000000 0.000000 0
0.000000 0.000002 0
-0.004982 0.020644 0
-0.015952 0.031967 0
-0.029254 0.033217 0
-0.041912 0.026688 0
-0.052114 0.016005 0
-0.059118 0.004022 0
-0.062811 -0.007790 0
-0.063408 -0.018953 0
-0.061147 -0.029358 0
-0.056179 -0.038850 0
-0.048590 -0.047154 0
-0.038430 -0.053877 0
-0.025644 -0.058612 0
-0.010269 -0.060855 0
0.007405 -0.060147 0
0.027039 -0.056375 0
0.047881 -0.049513 0
0.068771 -0.039756 0
0.088388 -0.027809 0
0.105320 -0.014618 0
0.118050 -0.001296 0
0.125545 0.010709 0
0.127536 0.020474 0
0.124960 0.027877 0
0.118908 0.032962 0
0.110419 0.035881 0
0.100425 0.036862 0
0.089710 0.036195 0
0.078895 0.034217 0
0.068450 0.031286 0
0.058706 0.027757 0
0.049879 0.023960 0
0.042080 0.020173 0
0.035338 0.016614 0
0.029615 0.013431 0
0.024824 0.010711 0
0.020846 0.008484 0
0.017547 0.006739 0
0.014792 0.005432 0
0.012454 0.004502 0
0.010423 0.003872 0
0.008609 0.003460 0
0.006953 0.003178 0
0.005418 0.002939 0
0.003999 0.002663 0
0.002716 0.002288 0
0.001614 0.001780 0
0.000754 0.001158 0
0.000197 0.000506 0
0.000000 0.000000 0
0.000000 0.000002 0
-0.005111 0.028894 0
-0.016589 0.044624 0
-0.030858 0.046946 0
-0.044987 0.039082 0
-0.057139 0.025775 0
-0.066528 0.010735 0
-0.073013 -0.004100 0
-0.076726 -0.018066 0
-0.077928 -0.031072 0
-0.076773 -0.043062 0
-0.073324 -0.053830 0
-0.067577 -0.063046 0
-0.059465 -0.070313 0
-0.048936 -0.075166 0
-0.035840 -0.077155 0
-0.020123 -0.075805 0
-0.002011 -0.070582 0
0.018088 -0.061380 0
0.039440 -0.048641 0
0.060579 -0.032939 0
0.079688 -0.015421 0
0.095158 0.002144 0
0.105211 0.017652 0
0.109343 0.029746 0
0.108739 0.038356 0
0.104570 0.043711 0
0.097951 0.046176 0
0.089837 0.046215 0
0.080973 0.044342 0
0.071933 0.041073 0
0.063139 0.036897 0
0.054881 0.032256 0
0.047343 0.027526 0
0.040623 0.023001 0
0.034741 0.018892 0
0.029665 0.015329 0
0.025320 0.012369 0
0.021607 0.010014 0
0.018418 0.008222 0
0.015643 0.006920 0
0.013185 0.006016 0
0.010963 0.005403 0
0.008916 0.004970 0
0.007010 0.004602 0
0.005236 0.004191 0
0.003614 0.003645 0
0.002195 0.002910 0
0.001055 0.001987 0
0.000289 0.000956 0
0.000000 0.000000 0
0.000000 0.000003 0
-0.004970 0.037232 0
-0.016407 0.057713 0
-0.031061 0.061615 0
-0.046161 0.052968 0
-0.059854 0.037546 0
-0.071269 0.019896 0
-0.080195 0.002407 0
-0.086685 -0.014039 0
-0.090944 -0.029311 0
-0.093179 -0.043455 0
-0.093465 -0.056351 0
-0.091797 -0.067737 0
-0.088111 -0.077254 0
-0.082311 -0.084480 0
-0.074241 -0.088961 0
-0.063771 -0.090205 0
-0.050716 -0.087725 0
-0.034864 -0.081208 0
-0.016332 -0.070301 0
0.004244 -0.054867 0
0.025952 -0.035875 0
0.047193 -0.014814 0
0.065561 0.006289 0
0.078431 0.024349 0
0.085491 0.037734 0
0.087726 0.046668 0
0.086375 0.051596 0
0.082539 0.053173 0
0.077067 0.052120 0
0.070651 0.049120 0
0.063825 0.044810 0
0.056977 0.039755 0
0.050387 0.034431 0
0.044236 0.029216 0
0.038626 0.024389 0
0.033594 0.020133 0
0.029130 0.016542 0
0.025185 0.013641 0
0.021693 0.011396 0
0.018577 0.009735 0
0.015763 0.008553 0
0.013184 0.007729 0
0.010788 0.007131 0
0.008544 0.006620 0
0.006443 0.006059 0
0.004503 0.005328 0
0.002779 0.004340 0
0.001363 0.003064 0
0.000384 0.001561 0
0.000000 0.000000 0
0.000000 0.000003 0
-0.004639 0.045301 0
-0.015604 0.070715 0
-0.030131 0.076700 0
-0.045713 0.067874 0
-0.060499 0.050882 0
-0.073508 0.031076 0
-0.084437 0.011315 0
-0.093296 -0.007318 0
-0.100177 -0.024578 0
-0.105324 -0.040541 0
-0.108859 -0.055213 0
-0.110801 -0.068400 0
-0.111102 -0.079800 0
-0.109663 -0.089037 0
-0.106328 -0.095697 0
-0.100907 -0.099331 0
-0.093140 -0.099489 0
-0.082743 -0.095765 0
-0.069528 -0.087750 0
-0.053224 -0.075224 0
-0.033774 -0.058370 0
-0.011990 -0.037465 0
0.010731 -0.013587 0
0.032108 0.009816 0
0.048732 0.029061 0
0.059265 0.042827 0
0.065029 0.051363 0
0.067162 0.055523 0
0.066534 0.056230 0
0.063986 0.054314 0
0.060176 0.050571 0
0.055612 0.045694 0
0.050687 0.040268 0
0.045690 0.034762 0
0.040821 0.029534 0
0.036204 0.024825 0
0.031907 0.020778 0
0.027952 0.017451 0
0.024328 0.014830 0
0.021003 0.012851 0
0.017937 0.011410 0
0.015087 0.010378 0
0.012416 0.009610 0
0.009900 0.008948 0
0.007529 0.008232 0
0.005322 0.007309 0
0.003332 0.006050 0
0.001664 0.004382 0
0.000481 0.002320 0
0.000000 0.000001 0
0.000000 0.000004 0
-0.004179 0.052835 0
-0.014349 0.083205 0
-0.028315 0.091724 0
-0.043929 0.083337 0
-0.059378 0.065340 0
-0.073562 0.043834 0
-0.086078 0.022195 0
-0.096898 0.001700 0
-0.106068 -0.017284 0
-0.113732 -0.034772 0
-0.120098 -0.050875 0
-0.125219 -0.065495 0
-0.129065 -0.078393 0
-0.131546 -0.089255 0
-0.132511 -0.097718 0
-0.131754 -0.103394 0
-0.129000 -0.105889 0
-0.123922 -0.104820 0
-0.116162 -0.099821 0
-0.105280 -0.090622 0
-0.090934 -0.077109 0
-0.073028 -0.059320 0
-0.051543 -0.037810 0
-0.027263 -0.013652 0
-0.003138 0.010577 0
0.017278 0.030371 0
0.032200 0.043698 0
0.042104 0.051669 0
0.047886 0.055297 0
0.050586 0.055478 0
0.050973 0.053184 0
0.049682 0.049245 0
0.047251 0.044353 0
0.044097 0.039082 0
0.040533 0.033876 0
0.036791 0.029047 0
0.033035 0.024794 0
0.029371 0.021220 0
0.025858 0.018346 0
0.022524 0.016126 0
0.019372 0.014469 0
0.016395 0.013250 0
0.013576 0.012318 0
0.010901 0.011507 0
0.008364 0.010638 0
0.005981 0.009526 0
0.003801 0.007997 0
0.001935 0.005916 0
0.000574 0.003225 0
0.000000 0.000001 0
0.000000 0.000004 0
-0.003643 0.059649 0
-0.012790 0.094851 0
-0.025850 0.106279 0
-0.041096 0.098936 0
-0.056816 0.080515 0
-0.071803 0.057776 0
-0.085535 0.034651 0
-0.097943 0.012672 0
-0.109096 -0.007744 0
-0.118990 -0.026511 0
-0.127847 -0.043727 0
-0.135771 -0.059434 0
-0.142755 -0.073473 0
-0.148716 -0.085592 0
-0.153507 -0.095490 0
-0.156919 -0.102843 0
-0.158679 -0.107321 0
-0.158452 -0.108603 0
-0.155837 -0.106393 0
-0.150359 -0.100452 0
-0.141530 -0.090622 0
-0.128880 -0.076856 0
-0.111999 -0.059353 0
-0.090895 -0.038589 0
-0.065993 -0.015479 0
-0.039387 0.007488 0
-0.015132 0.026536 0
0.003994 0.039837 0
0.018152 0.047748 0
0.027887 0.051228 0
0.033958 0.051475 0
0.037205 0.049416 0
0.038341 0.045853 0
0.037933 0.041480 0
0.036431 0.036840 0
0.034196 0.032323 0
0.031510 0.028199 0
0.028581 0.024628 0
0.025553 0.021677 0
0.022525 0.019336 0
0.019560 0.017539 0
0.016691 0.016175 0
0.013932 0.015104 0
0.011286 0.014160 0
0.008753 0.013153 0
0.006345 0.011873 0
0.004104 0.010096 0
0.002138 0.007609 0
0.000656 0.004255 0
0.000000 0.000001 0
0.000000 0.000004 0
-0.003072 0.065624 0
-0.011056 0.105411 0
-0.022951 0.120030 0
-0.037492 0.114302 0
-0.053134 0.096046 0
-0.068590 0.072553 0
-0.083211 0.048336 0
-0.096870 0.025261 0
-0.109653 0.003763 0
-0.121585 -0.016021 0
-0.132658 -0.034093 0
-0.143055 -0.050587 0
-0.152802 -0.065449 0
-0.161822 -0.078504 0
-0.169968 -0.089516 0
-0.177028 -0.098222 0
-0.182729 -0.104356 0
-0.186741 -0.107663 0
-0.188669 -0.107914 0
-0.188059 -0.104929 0
-0.184409 -0.098589 0
-0.177184 -0.088851 0
-0.165852 -0.075796 0
-0.150014 -0.059659 0
-0.129468 -0.040931 0
-0.104466 -0.020489 0
-0.076863 0.000317 0
-0.050021 0.018384 0
-0.026772 0.031404 0
-0.008493 0.039671 0
0.005145 0.043865 0
0.014758 0.044862 0
0.021019 0.043625 0
0.024666 0.040992 0
0.026337 0.037613 0
0.026553 0.033968 0
0.025746 0.030409 0
0.024240 0.027178 0
0.022286 0.024402 0
0.020072 0.022119 0
0.017731 0.020304 0
0.015353 0.018877 0
0.012991 0.017722 0
0.010672 0.016686 0
0.008409 0.015579 0
0.006212 0.014176 0
0.004115 0.012204 0
0.002210 0.009364 0
0.000708 0.005364 0
0.000000 0.000001 0
0.000000 0.000004 0
-0.002500 0.070705 0
-0.009258 0.114729 0
-0.019812 0.132715 0
-0.033375 0.129119 0
-0.048632 0.111613 0
-0.064264 0.087854 0
-0.079488 0.062931 0
-0.094097 0.039114 0
-0.108171 0.016971 0
-0.121821 -0.003507 0
-0.134920 -0.022257 0
-0.147514 -0.039290 0
-0.159683 -0.054706 0
-0.171367 -0.068426 0
-0.182421 -0.080284 0
-0.192627 -0.090082 0
-0.201708 -0.097608 0
-0.209334 -0.102664 0
-0.215124 -0.105076 0
-0.218656 -0.104713 0
-0.219472 -0.101497 0
-0.217088 -0.095413 0
-0.211013 -0.086523 0
-0.200792 -0.074973 0
-0.186059 -0.061028 0
-0.166679 -0.045117 0
-0.142918 -0.027909 0
-0.115653 -0.010255 0
-0.087806 0.006220 0
-0.061908 0.019310 0
-0.039865 0.028224 0
-0.022396 0.033542 0
-0.009196 0.035945 0
0.000346 0.036163 0
0.006862 0.034952 0
0.011000 0.032914 0
0.013330 0.030512 0
0.014329 0.028087 0
0.014378 0.025846 0
0.013781 0.023891 0
0.012762 0.022257 0
0.011479 0.020915 0
0.010039 0.019785 0
0.008507 0.018742 0
0.006919 0.017613 0
0.005291 0.016167 0
0.003646 0.014098 0
0.002053 0.011016 0
0.000700 0.006466 0
0.000000 0.000001 0
0.000000 0.000004 0
-0.001950 0.074882 0
-0.007484 0.122723 0
-0.016599 0.144146 0
-0.028975 0.143123 0
-0.043586 0.126936 0
-0.059132 0.103408 0
-0.074707 0.078168 0
-0.089996 0.053944 0
-0.105054 0.031487 0
-0.120007 0.010728 0
-0.134875 -0.008400 0
-0.149454 -0.025825 0
-0.163746 -0.041596 0
-0.177731 -0.055765 0
-0.191274 -0.068256 0
-0.204159 -0.078935 0
-0.216104 -0.087650 0
-0.226776 -0.094247 0
-0.235801 -0.098592 0
-0.242778 -0.100582 0
-0.247294 -0.100157 0
-0.248932 -0.097310 0
-0.247290 -0.092092 0
-0.241997 -0.084612 0
-0.232734 -0.075043 0
-0.219284 -0.063630 0
-0.201601 -0.050710 0
-0.179937 -0.036728 0
-0.154842 -0.022340 0
-0.127856 -0.008270 0
-0.101305 0.004352 0
-0.076966 0.014193 0
-0.056067 0.020884 0
-0.039189 0.024934 0
-0.026090 0.026959 0
-0.016223 0.027500 0
-0.009019 0.027080 0
-0.003937 0.026130 0
-0.000491 0.024950 0
0.001744 0.023736 0
0.003101 0.022606 0
0.003827 0.021601 0
0.004100 0.020694 0
0.004039 0.019806 0
0.003721 0.018796 0
0.003181 0.017449 0
0.002436 0.015442 0
0.001525 0.012309 0
0.000586 0.007417 0
0.000000 0.000001 0
0.000000 0.000004 0
-0.001441 0.078188 0
-0.005800 0.129378 0
-0.013450 0.154206 0
-0.024494 0.156105 0
-0.038236 0.141770 0
-0.053463 0.118974 0
-0.069161 0.093795 0
-0.084889 0.069462 0
-0.100640 0.046981 0
-0.116555 0.026314 0
-0.132733 0.007191 0
-0.149043 -0.010419 0
-0.165222 -0.026430 0
-0.181185 -0.040898 0
-0.196833 -0.053856 0
-0.211967 -0.065252 0
-0.226308 -0.074992 0
-0.239527 -0.082967 0
-0.251255 -0.089073 0
-0.261104 -0.093220 0
-0.268681 -0.095343 0
-0.273613 -0.095417 0
-0.275563 -0.093457 0
-0.274245 -0.089529 0
-0.269431 -0.083741 0
-0.260970 -0.076250 0
-0.248799 -0.067256 0
-0.232980 -0.057014 0
-0.213728 -0.045862 0
-0.191542 -0.034226 0
-0.167099 -0.022666 0
-0.141714 -0.011695 0
-0.117056 -0.001832 0
-0.094382 0.006185 0
-0.074464 0.011986 0
-0.057694 0.015844 0
-0.044076 0.018226 0
-0.033270 0.019560 0
-0.024795 0.020165 0
-0.018187 0.020299 0
-0.013056 0.020174 0
-0.009080 0.019917 0
-0.006008 0.019573 0
-0.003647 0.019120 0
-0.001867 0.018471 0
-0.000602 0.017452 0
0.000168 0.015755 0
0.000450 0.012866 0
0.000303 0.007991 0
0.000000 0.000000 0
0.000000 0.000005 0
-0.000985 0.080681 0
-0.004255 0.134732 0
-0.010471 0.162841 0
-0.020100 0.167909 0
-0.032794 0.155904 0
-0.047491 0.134333 0
-0.063109 0.109594 0
-0.079067 0.085423 0
-0.095268 0.063153 0
-0.111833 0.042821 0
-0.128877 0.024087 0
-0.146410 0.006664 0
-0.164188 -0.009453 0
-0.181891 -0.024155 0
-0.199310 -0.037474 0
-0.216305 -0.049460 0
-0.232618 -0.060090 0
-0.247940 -0.069299 0
-0.261920 -0.077015 0
-0.274179 -0.083156 0
-0.284336 -0.087647 0
-0.292031 -0.090427 0
-0.296948 -0.091460 0
-0.298832 -0.090744 0
-0.297504 -0.088318 0
-0.292865 -0.084262 0
-0.284897 -0.078700 0
-0.273658 -0.071800 0
-0.259289 -0.063778 0
-0.242041 -0.054899 0
-0.222290 -0.045475 0
-0.200614 -0.035849 0
-0.177641 -0.026448 0
-0.154178 -0.017658 0
-0.131329 -0.009729 0
-0.110014 -0.002889 0
-0.090787 0.002656 0
-0.073894 0.006850 0
-0.059360 0.009867 0
-0.047083 0.011996 0
-0.036834 0.013498 0
-0.028317 0.014552 0
-0.021228 0.015261 0
-0.015328 0.015666 0
-0.010452 0.015752 0
-0.006503 0.015413 0
-0.003457 0.014390 0
-0.001345 0.012175 0
-0.000214 0.007867 0
0.000000 -0.000000 0
0.000000 0.000005 0
-0.000589 0.082442 0
-0.002880 0.138864 0
-0.007739 0.170051 0
-0.015927 0.178428 0
-0.027437 0.169160 0
-0.041416 0.149289 0
-0.056767 0.125371 0
-0.072771 0.101620 0
-0.089214 0.079748 0
-0.106169 0.059923 0
-0.123745 0.041768 0
-0.141970 0.024892 0
-0.160771 0.009051 0
-0.179843 -0.005775 0
-0.198815 -0.019442 0
-0.217346 -0.031944 0
-0.235258 -0.043356 0
-0.252282 -0.053665 0
-0.268108 -0.062834 0
-0.282382 -0.070803 0
-0.294739 -0.077491 0
-0.304818 -0.082805 0
-0.312292 -0.086657 0
-0.316893 -0.088973 0
-0.318428 -0.089707 0
-0.316790 -0.088856 0
-0.311963 -0.086463 0
-0.304016 -0.082622 0
-0.293097 -0.077478 0
-0.279425 -0.071225 0
-0.263285 -0.064094 0
-0.245026 -0.056345 0
-0.225056 -0.048267 0
-0.203908 -0.040127 0
-0.182129 -0.032178 0
-0.160259 -0.024698 0
-0.138838 -0.017894 0
-0.118426 -0.011867 0
-0.099476 -0.006646 0
-0.082262 -0.002227 0
-0.066856 0.001408 0
-0.053226 0.004310 0
-0.041281 0.006584 0
-0.030917 0.008344 0
-0.022038 0.009646 0
-0.014573 0.010458 0
-0.008504 0.010597 0
-0.003914 0.009623 0
-0.000996 0.006646 0
0.000000 -0.000001 0
0.000000 0.000005 0
-0.000256 0.083561 0
-0.001691 0.141882 0
-0.005303 0.175887 0
-0.012072 0.187607 0
-0.022307 0.181393 0
-0.035405 0.163664 0
-0.050312 0.140949 0
-0.066192 0.117870 0
-0.082697 0.096552 0
-0.099820 0.077351 0
-0.117650 0.059889 0
-0.136220 0.043691 0
-0.155471 0.028420 0
-0.175260 0.013890 0
-0.195285 0.000029 0
-0.215116 -0.013017 0
-0.234364 -0.025154 0
-0.252747 -0.036449 0
-0.270049 -0.046914 0
-0.285966 -0.056525 0
-0.300171 -0.065211 0
-0.312315 -0.072873 0
-0.322055 -0.079384 0
-0.329083 -0.084608 0
-0.333154 -0.088421 0
-0.334105 -0.090726 0
-0.331864 -0.091473 0
-0.326459 -0.090665 0
-0.318017 -0.088369 0
-0.306746 -0.084712 0
-0.292929 -0.079874 0
-0.276894 -0.074078 0
-0.259011 -0.067566 0
-0.239676 -0.060585 0
-0.219277 -0.053378 0
-0.198211 -0.046179 0
-0.176904 -0.039177 0
-0.155753 -0.032512 0
-0.135115 -0.026297 0
-0.115280 -0.020624 0
-0.096493 -0.015537 0
-0.078968 -0.011022 0
-0.062872 -0.007048 0
-0.048310 -0.003578 0
-0.035347 -0.000592 0
-0.024045 0.001880 0
-0.014526 0.003731 0
-0.007025 0.004666 0
-0.001969 0.003953 0
0.000000 -0.000002 0
0.000000 0.000005 0
0.000012 0.084133 0
-0.000694 0.143910 0
-0.003189 0.180432 0
-0.008603 0.195432 0
-0.017515 0.192493 0
-0.029594 0.177295 0
-0.043889 0.156159 0
-0.059482 0.134005 0
-0.075882 0.113376 0
-0.092983 0.094877 0
-0.110832 0.078168 0
-0.129458 0.062714 0
-0.148813 0.048092 0
-0.168770 0.034039 0
-0.189138 0.020414 0
-0.209663 0.007136 0
-0.229896 -0.005724 0
-0.249443 -0.017979 0
-0.267917 -0.029614 0
-0.285124 -0.040681 0
-0.300816 -0.051142 0
-0.314692 -0.060921 0
-0.326413 -0.069888 0
-0.335639 -0.077872 0
-0.342061 -0.084685 0
-0.345434 -0.090147 0
-0.345598 -0.094108 0
-0.342493 -0.096468 0
-0.336169 -0.097191 0
-0.326784 -0.096313 0
-0.314596 -0.093946 0
-0.299936 -0.090263 0
-0.283188 -0.085485 0
-0.264756 -0.079860 0
-0.245035 -0.073642 0
-0.224408 -0.067071 0
-0.203237 -0.060352 0
-0.181844 -0.053656 0
-0.160514 -0.047119 0
-0.139508 -0.040848 0
-0.119080 -0.034904 0
-0.099452 -0.029311 0
-0.080826 -0.024073 0
-0.063387 -0.019181 0
-0.047322 -0.014619 0
-0.032853 -0.010363 0
-0.020290 -0.006423 0
-0.010085 -0.002933 0
-0.002949 -0.000379 0
0.000000 -0.000004 0
0.000000 0.000005 0
0.000231 0.084255 0
0.000115 0.145082 0
-0.001403 0.183796 0
-0.005558 0.201933 0
-0.013140 0.202384 0
-0.024091 0.190038 0
-0.037614 0.170837 0
-0.052757 0.149863 0
-0.068894 0.130053 0
-0.085802 0.112302 0
-0.103467 0.096365 0
-0.121906 0.081673 0
-0.141075 0.067733 0
-0.160865 0.054215 0
-0.181115 0.040923 0
-0.201617 0.027742 0
-0.222146 0.014627 0
-0.242342 0.001573 0
-0.261756 -0.011231 0
-0.280010 -0.023626 0
-0.296840 -0.035643 0
-0.312077 -0.047275 0
-0.325442 -0.058437 0
-0.336592 -0.068960 0
-0.345176 -0.078625 0
-0.350872 -0.087188 0
-0.353419 -0.094414 0
-0.352645 -0.100094 0
-0.348486 -0.104078 0
-0.341002 -0.106284 0
-0.330376 -0.106721 0
-0.316901 -0.105484 0
-0.300958 -0.102746 0