# vtk DataFile Version 2.0
generated by CFD-lab course output (written by Tobias Neckel) 
ASCII

DATASET STRUCTURED_GRID
DIMENSIONS  51 51 1 
POINTS 2601 float

0.000000 0.000000 0
0.020000 0.000000 0
0.040000 0.000000 0
0.060000 0.000000 0
0.080000 0.000000 0
0.100000 0.000000 0
0.120000 0.000000 0
0.140000 0.000000 0
0.160000 0.000000 0
0.180000 0.000000 0
0.200000 0.000000 0
0.220000 0.000000 0
0.240000 0.000000 0
0.260000 0.000000 0
0.280000 0.000000 0
0.300000 0.000000 0
0.320000 0.000000 0
0.340000 0.000000 0
0.360000 0.000000 0
0.380000 0.000000 0
0.400000 0.000000 0
0.420000 0.000000 0
0.440000 0.000000 0
0.460000 0.000000 0
0.480000 0.000000 0
0.500000 0.000000 0
0.520000 0.000000 0
0.540000 0.000000 0
0.560000 0.000000 0
0.580000 0.000000 0
0.600000 0.000000 0
0.620000 0.000000 0
0.640000 0.000000 0
0.660000 0.000000 0
0.680000 0.000000 0
0.700000 0.000000 0
0.720000 0.000000 0
0.740000 0.000000 0
0.760000 0.000000 0
0.780000 0.000000 0
0.800000 0.000000 0
0.820000 0.000000 0
0.840000 0.000000 0
0.860000 0.000000 0
0.880000 0.000000 0
0.900000 0.000000 0
0.920000 0.000000 0
0.940000 0.000000 0
0.960000 0.000000 0
0.980000 0.000000 0
1.000000 0.000000 0
0.000000 0.020000 0
0.020000 0.020000 0
0.040000 0.020000 0
0.060000 0.020000 0
0.080000 0.020000 0
0.100000 0.020000 0
0.120000 0.020000 0
0.140000 0.020000 0
0.160000 0.020000 0
0.180000 0.020000 0
0.200000 0.020000 0
0.220000 0.020000 0
0.240000 0.020000 0
0.260000 0.020000 0
0.280000 0.020000 0
0.300000 0.020000 0
0.320000 0.020000 0
0.340000 0.020000 0
0.360000 0.020000 0
0.380000 0.020000 0
0.400000 0.020000 0
0.420000 0.020000 0
0.440000 0.020000 0
0.460000 0.020000 0
0.480000 0.020000 0
0.500000 0.020000 0
0.520000 0.020000 0
0.540000 0.020000 0
0.560000 0.020000 0
0.580000 0.020000 0
0.600000 0.020000 0
0.620000 0.020000 0
0.640000 0.020000 0
0.660000 0.020000 0
0.680000 0.020000 0
0.700000 0.020000 0
0.720000 0.020000 0
0.740000 0.020000 0
0.760000 0.020000 0
0.780000 0.020000 0
0.800000 0.020000 0
0.820000 0.020000 0
0.840000 0.020000 0
0.860000 0.020000 0
0.880000 0.020000 0
0.900000 0.020000 0
0.920000 0.020000 0
0.940000 0.020000 0
0.960000 0.020000 0
0.980000 0.020000 0
1.000000 0.020000 0
0.000000 0.040000 0
0.020000 0.040000 0
0.040000 0.040000 0
0.060000 0.040000 0
0.080000 0.040000 0
0.100000 0.040000 0
0.120000 0.040000 0
0.140000 0.040000 0
0.160000 0.040000 0
0.180000 0.040000 0
0.200000 0.040000 0
0.220000 0.040000 0
0.240000 0.040000 0
0.260000 0.040000 0
0.280000 0.040000 0
0.300000 0.040000 0
0.320000 0.040000 0
0.340000 0.040000 0
0.360000 0.040000 0
0.380000 0.040000 0
0.400000 0.040000 0
0.420000 0.040000 0
0.440000 0.040000 0
0.460000 0.040000 0
0.480000 0.040000 0
0.500000 0.040000 0
0.520000 0.040000 0
0.540000 0.040000 0
0.560000 0.040000 0
0.580000 0.040000 0
0.600000 0.040000 0
0.620000 0.040000 0
0.640000 0.040000 0
0.660000 0.040000 0
0.680000 0.040000 0
0.700000 0.040000 0
0.720000 0.040000 0
0.740000 0.040000 0
0.760000 0.040000 0
0.780000 0.040000 0
0.800000 0.040000 0
0.820000 0.040000 0
0.840000 0.040000 0
0.860000 0.040000 0
0.880000 0.040000 0
0.900000 0.040000 0
0.920000 0.040000 0
0.940000 0.040000 0
0.960000 0.040000 0
0.980000 0.040000 0
1.000000 0.040000 0
0.000000 0.060000 0
0.020000 0.060000 0
0.040000 0.060000 0
0.060000 0.060000 0
0.080000 0.060000 0
0.100000 0.060000 0
0.120000 0.060000 0
0.140000 0.060000 0
0.160000 0.060000 0
0.180000 0.060000 0
0.200000 0.060000 0
0.220000 0.060000 0
0.240000 0.060000 0
0.260000 0.060000 0
0.280000 0.060000 0
0.300000 0.060000 0
0.320000 0.060000 0
0.340000 0.060000 0
0.360000 0.060000 0
0.380000 0.060000 0
0.400000 0.060000 0
0.420000 0.060000 0
0.440000 0.060000 0
0.460000 0.060000 0
0.480000 0.060000 0
0.500000 0.060000 0
0.520000 0.060000 0
0.540000 0.060000 0
0.560000 0.060000 0
0.580000 0.060000 0
0.600000 0.060000 0
0.620000 0.060000 0
0.640000 0.060000 0
0.660000 0.060000 0
0.680000 0.060000 0
0.700000 0.060000 0
0.720000 0.060000 0
0.740000 0.060000 0
0.760000 0.060000 0
0.780000 0.060000 0
0.800000 0.060000 0
0.820000 0.060000 0
0.840000 0.060000 0
0.860000 0.060000 0
0.880000 0.060000 0
0.900000 0.060000 0
0.920000 0.060000 0
0.940000 0.060000 0
0.960000 0.060000 0
0.980000 0.060000 0
1.000000 0.060000 0
0.000000 0.080000 0
0.020000 0.080000 0
0.040000 0.080000 0
0.060000 0.080000 0
0.080000 0.080000 0
0.100000 0.080000 0
0.120000 0.080000 0
0.140000 0.080000 0
0.160000 0.080000 0
0.180000 0.080000 0
0.200000 0.080000 0
0.220000 0.080000 0
0.240000 0.080000 0
0.260000 0.080000 0
0.280000 0.080000 0
0.300000 0.080000 0
0.320000 0.080000 0
0.340000 0.080000 0
0.360000 0.080000 0
0.380000 0.080000 0
0.400000 0.080000 0
0.420000 0.080000 0
0.440000 0.080000 0
0.460000 0.080000 0
0.480000 0.080000 0
0.500000 0.080000 0
0.520000 0.080000 0
0.540000 0.080000 0
0.560000 0.080000 0
0.580000 0.080000 0
0.600000 0.080000 0
0.620000 0.080000 0
0.640000 0.080000 0
0.660000 0.080000 0
0.680000 0.080000 0
0.700000 0.080000 0
0.720000 0.080000 0
0.740000 0.080000 0
0.760000 0.080000 0
0.780000 0.080000 0
0.800000 0.080000 0
0.820000 0.080000 0
0.840000 0.080000 0
0.860000 0.080000 0
0.880000 0.080000 0
0.900000 0.080000 0
0.920000 0.080000 0
0.940000 0.080000 0
0.960000 0.080000 0
0.980000 0.080000 0
1.000000 0.080000 0
0.000000 0.100000 0
0.020000 0.100000 0
0.040000 0.100000 0
0.060000 0.100000 0
0.080000 0.100000 0
0.100000 0.100000 0
0.120000 0.100000 0
0.140000 0.100000 0
0.160000 0.100000 0
0.180000 0.100000 0
0.200000 0.100000 0
0.220000 0.100000 0
0.240000 0.100000 0
0.260000 0.100000 0
0.280000 0.100000 0
0.300000 0.100000 0
0.320000 0.100000 0
0.340000 0.100000 0
0.360000 0.100000 0
0.380000 0.100000 0
0.400000 0.100000 0
0.420000 0.100000 0
0.440000 0.100000 0
0.460000 0.100000 0
0.480000 0.100000 0
0.500000 0.100000 0
0.520000 0.100000 0
0.540000 0.100000 0
0.560000 0.100000 0
0.580000 0.100000 0
0.600000 0.100000 0
0.620000 0.100000 0
0.640000 0.100000 0
0.660000 0.100000 0
0.680000 0.100000 0
0.700000 0.100000 0
0.720000 0.100000 0
0.740000 0.100000 0
0.760000 0.100000 0
0.780000 0.100000 0
0.800000 0.100000 0
0.820000 0.100000 0
0.840000 0.100000 0
0.860000 0.100000 0
0.880000 0.100000 0
0.900000 0.100000 0
0.920000 0.100000 0
0.940000 0.100000 0
0.960000 0.100000 0
0.980000 0.100000 0
1.000000 0.100000 0
0.000000 0.120000 0
0.020000 0.120000 0
0.040000 0.120000 0
0.060000 0.120000 0
0.080000 0.120000 0
0.100000 0.120000 0
0.120000 0.120000 0
0.140000 0.120000 0
0.160000 0.120000 0
0.180000 0.120000 0
0.200000 0.120000 0
0.220000 0.120000 0
0.240000 0.120000 0
0.260000 0.120000 0
0.280000 0.120000 0
0.300000 0.120000 0
0.320000 0.120000 0
0.340000 0.120000 0
0.360000 0.120000 0
0.380000 0.120000 0
0.400000 0.120000 0
0.420000 0.120000 0
0.440000 0.120000 0
0.460000 0.120000 0
0.480000 0.120000 0
0.500000 0.120000 0
0.520000 0.120000 0
0.540000 0.120000 0
0.560000 0.120000 0
0.580000 0.120000 0
0.600000 0.120000 0
0.620000 0.120000 0
0.640000 0.120000 0
0.660000 0.120000 0
0.680000 0.120000 0
0.700000 0.120000 0
0.720000 0.120000 0
0.740000 0.120000 0
0.760000 0.120000 0
0.780000 0.120000 0
0.800000 0.120000 0
0.820000 0.120000 0
0.840000 0.120000 0
0.860000 0.120000 0
0.880000 0.120000 0
0.900000 0.120000 0
0.920000 0.120000 0
0.940000 0.120000 0
0.960000 0.120000 0
0.980000 0.120000 0
1.000000 0.120000 0
0.000000 0.140000 0
0.020000 0.140000 0
0.040000 0.140000 0
0.060000 0.140000 0
0.080000 0.140000 0
0.100000 0.140000 0
0.120000 0.140000 0
0.140000 0.140000 0
0.160000 0.140000 0
0.180000 0.140000 0
0.200000 0.140000 0
0.220000 0.140000 0
0.240000 0.140000 0
0.260000 0.140000 0
0.280000 0.140000 0
0.300000 0.140000 0
0.320000 0.140000 0
0.340000 0.140000 0
0.360000 0.140000 0
0.380000 0.140000 0
0.400000 0.140000 0
0.420000 0.140000 0
0.440000 0.140000 0
0.460000 0.140000 0
0.480000 0.140000 0
0.500000 0.140000 0
0.520000 0.140000 0
0.540000 0.140000 0
0.560000 0.140000 0
0.580000 0.140000 0
0.600000 0.140000 0
0.620000 0.140000 0
0.640000 0.140000 0
0.660000 0.140000 0
0.680000 0.140000 0
0.700000 0.140000 0
0.720000 0.140000 0
0.740000 0.140000 0
0.760000 0.140000 0
0.780000 0.140000 0
0.800000 0.140000 0
0.820000 0.140000 0
0.840000 0.140000 0
0.860000 0.140000 0
0.880000 0.140000 0
0.900000 0.140000 0
0.920000 0.140000 0
0.940000 0.140000 0
0.960000 0.140000 0
0.980000 0.140000 0
1.000000 0.140000 0
0.000000 0.160000 0
0.020000 0.160000 0
0.040000 0.160000 0
0.060000 0.160000 0
0.080000 0.160000 0
0.100000 0.160000 0
0.120000 0.160000 0
0.140000 0.160000 0
0.160000 0.160000 0
0.180000 0.160000 0
0.200000 0.160000 0
0.220000 0.160000 0
0.240000 0.160000 0
0.260000 0.160000 0
0.280000 0.160000 0
0.300000 0.160000 0
0.320000 0.160000 0
0.340000 0.160000 0
0.360000 0.160000 0
0.380000 0.160000 0
0.400000 0.160000 0
0.420000 0.160000 0
0.440000 0.160000 0
0.460000 0.160000 0
0.480000 0.160000 0
0.500000 0.160000 0
0.520000 0.160000 0
0.540000 0.160000 0
0.560000 0.160000 0
0.580000 0.160000 0
0.600000 0.160000 0
0.620000 0.160000 0
0.640000 0.160000 0
0.660000 0.160000 0
0.680000 0.160000 0
0.700000 0.160000 0
0.720000 0.160000 0
0.740000 0.160000 0
0.760000 0.160000 0
0.780000 0.160000 0
0.800000 0.160000 0
0.820000 0.160000 0
0.840000 0.160000 0
0.860000 0.160000 0
0.880000 0.160000 0
0.900000 0.160000 0
0.920000 0.160000 0
0.940000 0.160000 0
0.960000 0.160000 0
0.980000 0.160000 0
1.000000 0.160000 0
0.000000 0.180000 0
0.020000 0.180000 0
0.040000 0.180000 0
0.060000 0.180000 0
0.080000 0.180000 0
0.100000 0.180000 0
0.120000 0.180000 0
0.140000 0.180000 0
0.160000 0.180000 0
0.180000 0.180000 0
0.200000 0.180000 0
0.220000 0.180000 0
0.240000 0.180000 0
0.260000 0.180000 0
0.280000 0.180000 0
0.300000 0.180000 0
0.320000 0.180000 0
0.340000 0.180000 0
0.360000 0.180000 0
0.380000 0.180000 0
0.400000 0.180000 0
0.420000 0.180000 0
0.440000 0.180000 0
0.460000 0.180000 0
0.480000 0.180000 0
0.500000 0.180000 0
0.520000 0.180000 0
0.540000 0.180000 0
0.560000 0.180000 0
0.580000 0.180000 0
0.600000 0.180000 0
0.620000 0.180000 0
[...]
POINT_DATA 2601 

VECTORS velocity float
0.000000 0.000000 0
-0.000000 0.000000 0
-0.000003 0.000000 0
-0.000006 0.000000 0
-0.000009 0.000000 0
-0.000014 0.000000 0
-0.000019 0.000000 0
-0.000026 0.000000 0
-0.000030 0.000000 0
-0.000032 0.000000 0
-0.000032 0.000000 0
-0.000027 0.000000 0
-0.000019 0.000000 0
-0.000008 0.000000 0
0.000002 0.000000 0
0.000009 0.000000 0
0.000012 0.000000 0
0.000014 0.000000 0
0.000014 0.000000 0
0.000013 0.000000 0
0.000012 0.000000 0
0.000010 0.000000 0
0.000008 0.000000 0
0.000005 0.000000 0
0.000003 0.000000 0
0.000002 0.000000 0
0.000001 0.000000 0
0.000001 0.000000 0
0.000000 0.000000 0
0.000000 0.000000 0
0.000000 0.000000 0
0.000000 0.000000 0
0.000000 0.000000 0
0.000000 0.000000 0
0.000000 0.000000 0
0.000001 0.000000 0
0.000001 0.000000 0
0.000001 0.000000 0
0.000001 0.000000 0
0.000001 0.000000 0
0.000001 0.000000 0
0.000001 0.000000 0
0.000001 0.000000 0
0.000001 0.000000 0
0.000001 0.000000 0
0.000001 0.000000 0
0.000001 0.000000 0
0.000000 0.000000 0
0.000000 0.000000 0
0.000000 0.000000 0
0.000000 0.000000 0
0.000000 0.000000 0
-0.009718 0.008423 0
-0.023980 0.008506 0
-0.033670 0.004308 0
-0.038000 0.000188 0
-0.037525 -0.003812 0
-0.032263 -0.008328 0
-0.021912 -0.013278 0
-0.006337 -0.017667 0
0.014174 -0.020628 0
0.038665 -0.021825 0
0.065278 -0.020721 0
0.091902 -0.017170 0
0.115884 -0.011757 0
0.134730 -0.005600 0
0.146391 -0.000087 0
0.150013 0.004104 0
0.146191 0.007250 0
0.136810 0.009709 0
0.123296 0.011688 0
0.106794 0.013223 0
0.088373 0.014194 0
0.069159 0.014398 0
0.050335 0.013664 0
0.033054 0.011969 0
0.018305 0.009483 0
0.006798 0.006546 0
-0.001118 0.003660 0
-0.005517 0.001514 0
-0.007452 0.000364 0
-0.008097 -0.000120 0
-0.008156 -0.000264 0
-0.007989 -0.000271 0
-0.007747 -0.000241 0
-0.007479 -0.000217 0
-0.007189 -0.000211 0
-0.006861 -0.000225 0
-0.006479 -0.000253 0
-0.006033 -0.000288 0
-0.005519 -0.000326 0
-0.004940 -0.000361 0
-0.004310 -0.000387 0
-0.003645 -0.000403 0
-0.002968 -0.000404 0
-0.002302 -0.000391 0
-0.001675 -0.000361 0
-0.001111 -0.000314 0
-0.000636 -0.000248 0
-0.000277 -0.000161 0
-0.000060 -0.000059 0
0.000000 0.000000 0
0.000000 0.000002 0
-0.014091 0.023979 0
-0.033600 0.023951 0
-0.047977 0.014020 0
-0.056097 0.003855 0
-0.058556 -0.005738 0
-0.055925 -0.015615 0
-0.048460 -0.025927 0
-0.036262 -0.036087 0
-0.018915 -0.045004 0
0.003628 -0.051105 0
0.031208 -0.053239 0
0.062924 -0.050608 0
0.096545 -0.042829 0
0.129251 -0.030508 0
0.156890 -0.015284 0
0.175431 0.000199 0
0.182218 0.013202 0
0.177502 0.022894 0
0.164197 0.030016 0
0.144872 0.034923 0
0.121902 0.037635 0
0.097440 0.038037 0
0.073314 0.036105 0
0.050957 0.032031 0
0.031420 0.026256 0
0.015414 0.019423 0
0.003341 0.012315 0
-0.004700 0.006334 0
-0.009024 0.002579 0
-0.011095 0.000705 0
-0.011955 -0.000107 0
-0.012201 -0.000409 0
-0.012137 -0.000510 0
-0.011901 -0.000558 0
-0.011539 -0.000618 0
-0.011060 -0.000709 0
-0.010458 -0.000828 0
-0.009730 -0.000961 0
-0.008882 -0.001093 0
-0.007930 -0.001209 0
-0.006900 -0.001295 0
-0.005823 -0.001342 0
-0.004739 -0.001342 0
-0.003687 -0.001293 0
-0.002704 -0.001192 0
-0.001827 -0.001039 0
-0.001089 -0.000833 0
-0.000519 -0.000575 0
-0.000146 -0.000277 0
0.000000 0.000000 0
0.000000 0.000004 0
-0.014890 0.042022 0
-0.036226 0.042393 0
-0.052915 0.026805 0
-0.063527 0.010767 0
-0.068916 -0.003985 0
-0.069776 -0.018424 0
-0.066702 -0.032941 0
-0.059908 -0.047212 0
-0.049404 -0.060519 0
-0.034861 -0.071949 0
-0.015509 -0.080017 0
0.009016 -0.082508 0
0.038899 -0.078084 0
0.072640 -0.065946 0
0.107218 -0.046267 0
0.138431 -0.021224 0
0.160580 0.005179 0
0.168726 0.027730 0
0.163935 0.044317 0
0.149653 0.055517 0
0.129432 0.061626 0
0.106398 0.062986 0
0.082955 0.060147 0
0.060768 0.053862 0
0.040901 0.045026 0
0.023992 0.034625 0
0.010372 0.023774 0
0.000101 0.013879 0
-0.006597 0.006759 0
-0.010287 0.002810 0
-0.012198 0.000842 0
-0.013103 -0.000088 0
-0.013424 -0.000541 0
-0.013381 -0.000815 0
-0.013083 -0.001052 0
-0.012571 -0.001306 0
-0.011865 -0.001582 0
-0.010982 -0.001864 0
-0.009948 -0.002126 0
-0.008798 -0.002343 0
-0.007574 -0.002494 0
-0.006325 -0.002563 0
-0.005096 -0.002541 0
-0.003931 -0.002426 0
-0.002869 -0.002221 0
-0.001940 -0.001930 0
-0.001168 -0.001556 0
-0.000573 -0.001104 0
-0.000171 -0.000578 0
0.000000 0.000000 0
0.000000 0.000005 0
-0.013764 0.060204 0
-0.035159 0.061976 0
-0.053022 0.041321 0
-0.065195 0.019856 0
-0.072643 0.000510 0
-0.076141 -0.017830 0
-0.076396 -0.035795 0
-0.073688 -0.053385 0
-0.068078 -0.070052 0
-0.059465 -0.085001 0
-0.047649 -0.097117 0
-0.032017 -0.105016 0
-0.011456 -0.106453 0
0.014276 -0.098827 0
0.045283 -0.081075 0
0.078835 -0.053163 0
0.109981 -0.017093 0
0.132550 0.019539 0
0.138623 0.049089 0
0.133169 0.069426 0
0.120150 0.080889 0
0.102956 0.084514 0
0.084119 0.081735 0
0.065368 0.074085 0
0.047817 0.063032 0
0.032129 0.049952 0
0.018661 0.036205 0
0.007607 0.023303 0
-0.000851 0.012967 0
-0.006347 0.006305 0
-0.009464 0.002709 0
-0.011156 0.000817 0
-0.011962 -0.000231 0
-0.012191 -0.000898 0
-0.012023 -0.001428 0
-0.011548 -0.001928 0
-0.010821 -0.002417 0
-0.009889 -0.002878 0
-0.008804 -0.003277 0
-0.007625 -0.003582 0
-0.006410 -0.003768 0
-0.005215 -0.003820 0
-0.004088 -0.003736 0
-0.003068 -0.003520 0
-0.002179 -0.003183 0
-0.001438 -0.002739 0
-0.000849 -0.002201 0
-0.000411 -0.001573 0
-0.000122 -0.000849 0
0.000000 0.000001 0
0.000000 0.000006 0
-0.011597 0.077180 0
-0.031922 0.081650 0
-0.050323 0.056841 0
-0.063527 0.030388 0
-0.072395 0.006960 0
-0.077913 -0.014672 0
-0.080736 -0.035394 0
-0.081341 -0.055531 0
-0.079855 -0.074743 0
-0.076245 -0.092379 0
-0.070325 -0.107466 0
-0.061723 -0.118701 0
-0.049990 -0.124377 0
-0.034018 -0.122685 0
-0.012587 -0.110826 0
0.014272 -0.085922 0
0.045800 -0.048536 0
0.077342 -0.000911 0
0.095251 0.043698 0
0.100623 0.073990 0
0.097614 0.091839 0
0.089419 0.099017 0
0.078145 0.097734 0
0.065330 0.090164 0
0.052123 0.078264 0
0.039302 0.063781 0
0.027360 0.048297 0
0.016661 0.033391 0
0.007580 0.020712 0
0.000640 0.011423 0
-0.003901 0.005651 0
-0.006577 0.002410 0
-0.007992 0.000494 0
-0.008594 -0.000753 0
-0.008629 -0.001694 0
-0.008269 -0.002508 0
-0.007617 -0.003242 0
-0.006759 -0.003881 0
-0.005777 -0.004390 0
-0.004750 -0.004738 0
-0.003747 -0.004904 0
-0.002824 -0.004884 0
-0.002019 -0.004688 0
-0.001356 -0.004335 0
-0.000843 -0.003851 0
-0.000473 -0.003259 0
-0.000231 -0.002583 0
-0.000091 -0.001830 0
-0.000022 -0.000989 0
0.000000 0.000001 0
0.000000 0.000007 0
-0.008937 0.092126 0
-0.027358 0.100701 0
-0.045854 0.072926 0
-0.059829 0.041928 0
-0.069753 0.014895 0
-0.076837 -0.009489 0
-0.081687 -0.032367 0
-0.085007 -0.054267 0
-0.087030 -0.075149 0
-0.087831 -0.094531 0
-0.087309 -0.111639 0
-0.085141 -0.125352 0
-0.080787 -0.134158 0
-0.073424 -0.136229 0
-0.062272 -0.129366 0
-0.045673 -0.111551 0
-0.022118 -0.080163 0
0.007180 -0.029913 0
0.039442 0.025808 0
0.057467 0.067063 0
0.065355 0.092092 0
0.067726 0.103982 0
0.065785 0.105823 0
0.060630 0.100107 0
0.053343 0.089060 0
0.044783 0.074715 0
0.035601 0.058846 0
0.026372 0.043082 0
0.017675 0.028989 0
0.010201 0.017787 0
0.004484 0.009926 0
0.000699 0.004908 0
-0.001552 0.001785 0
-0.002725 -0.000262 0
-0.003137 -0.001752 0
-0.003044 -0.002939 0
-0.002626 -0.003927 0
-0.002020 -0.004717 0
-0.001336 -0.005285 0
-0.000667 -0.005612 0
-0.000080 -0.005694 0
0.000378 -0.005548 0
0.000687 -0.005203 0
0.000840 -0.004696 0
0.000849 -0.004066 0
0.000738 -0.003351 0
0.000540 -0.002583 0
0.000307 -0.001782 0
0.000101 -0.000940 0
0.000000 0.000001 0
0.000000 0.000008 0
-0.006174 0.104538 0
-0.022025 0.118567 0
-0.040208 0.089311 0
-0.054839 0.054287 0
-0.065629 0.023968 0
-0.073906 -0.002738 0
-0.080431 -0.027224 0
-0.085972 -0.050189 0
-0.090914 -0.071919 0
-0.095447 -0.092100 0
-0.099604 -0.110156 0
-0.103200 -0.125223 0
-0.105773 -0.136095 0
-0.106498 -0.141201 0
-0.104241 -0.138578 0
-0.097449 -0.126077 0
-0.084734 -0.101389 0
-0.063918 -0.062471 0
-0.030159 -0.006590 0
0.004335 0.048076 0
0.026657 0.081580 0
0.040452 0.098586 0
0.048210 0.104830 0
0.051409 0.102606 0
0.051027 0.094112 0
0.047821 0.081523 0
0.042497 0.066707 0
0.035817 0.051317 0
0.028513 0.036884 0
0.021379 0.024614 0
0.015214 0.015152 0
0.010533 0.008446 0
0.007340 0.003919 0
0.005371 0.000832 0
0.004291 -0.001375 0
0.003846 -0.003019 0
0.003770 -0.004266 0
0.003872 -0.005171 0
0.004018 -0.005743 0
0.004111 -0.005993 0
0.004093 -0.005949 0
0.003933 -0.005650 0
0.003627 -0.005149 0
0.003185 -0.004498 0
0.002631 -0.003748 0
0.001999 -0.002950 0
0.001335 -0.002152 0
0.000710 -0.001391 0
0.000221 -0.000683 0
0.000000 0.000001 0
0.000000 0.000008 0
-0.003606 0.114150 0
-0.016349 0.134735 0
-0.033744 0.105740 0
-0.048940 0.067349 0
-0.060496 0.033963 0
-0.069769 0.005313 0
-0.077792 -0.020302 0
-0.085180 -0.043784 0
-0.092554 -0.065673 0
-0.100185 -0.085842 0
-0.108206 -0.103887 0
-0.116571 -0.119183 0
-0.124978 -0.130859 0
-0.132761 -0.137761 0
-0.138781 -0.138415 0
-0.141294 -0.131058 0
-0.138034 -0.113694 0
-0.126063 -0.084488 0
-0.102182 -0.042445 0
-0.061757 0.010246 0
-0.020974 0.055976 0
0.007216 0.082431 0
0.026582 0.094866 0
0.038198 0.097289 0
0.045053 0.092648 0
0.047859 0.083246 0
0.047232 0.070850 0
0.044065 0.057066 0
0.039128 0.043426 0
0.033249 0.031086 0
0.027391 0.020772 0
0.022314 0.012782 0
0.018353 0.006947 0
0.015479 0.002788 0
0.013473 -0.000227 0
0.012120 -0.002418 0
0.011203 -0.003953 0
0.010493 -0.004965 0
0.009840 -0.005524 0
0.009147 -0.005687 0
0.008366 -0.005516 0
0.007481 -0.005082 0
0.006496 -0.004455 0
0.005430 -0.003700 0
0.004311 -0.002879 0
0.003172 -0.002055 0
0.002066 -0.001294 0
0.001074 -0.000667 0
0.000326 -0.000230 0
0.000000 0.000001 0
0.000000 0.000008 0
-0.001453 0.120887 0
-0.010699 0.148705 0
-0.026727 0.121902 0
-0.042361 0.081039 0
-0.054684 0.044796 0
-0.064879 0.014557 0
-0.074266 -0.011812 0
-0.083263 -0.035427 0
-0.092704 -0.056915 0
-0.102917 -0.076448 0
-0.114069 -0.093770 0
-0.126172 -0.108451 0
-0.139030 -0.119906 0
-0.152135 -0.127398 0
-0.164537 -0.130044 0
-0.174655 -0.126824 0
-0.180134 -0.116621 0
-0.177703 -0.098324 0
-0.163449 -0.070896 0
-0.133521 -0.033131 0
-0.087041 0.012607 0
-0.039411 0.051029 0
-0.003413 0.073848 0
0.020557 0.084136 0
0.035573 0.084451 0
0.044720 0.079343 0
0.049235 0.070501 0
0.050320 0.059421 0
0.048576 0.047700 0
0.044749 0.036352 0
0.039974 0.026086 0
0.035134 0.017484 0
0.030736 0.010754 0
0.026994 0.005711 0
0.023922 0.001984 0
0.021391 -0.000748 0
0.019279 -0.002639 0
0.017448 -0.003808 0
0.015747 -0.004397 0
0.014086 -0.004520 0
0.012424 -0.004282 0
0.010750 -0.003780 0
0.009070 -0.003099 0
0.007398 -0.002312 0
0.005756 -0.001490 0
0.004167 -0.000705 0
0.002680 -0.000053 0
0.001379 0.000349 0
0.000413 0.000392 0
0.000000 0.000001 0
0.000000 0.000008 0
0.000154 0.124849 0
-0.005411 0.160009 0
-0.019410 0.137402 0
-0.035257 0.095306 0
-0.048384 0.056480 0
-0.059426 0.024894 0
-0.069960 -0.001918 0
-0.080557 -0.025346 0
-0.091821 -0.046020 0
-0.104216 -0.064477 0
-0.117895 -0.080631 0
-0.132841 -0.094222 0
-0.148857 -0.104896 0
-0.165493 -0.112254 0
-0.181960 -0.115895 0
-0.197011 -0.115460 0
-0.208825 -0.110647 0
-0.214926 -0.101174 0
-0.212231 -0.086628 0
-0.197182 -0.066161 0
-0.165740 -0.038135 0
-0.117395 -0.001198 0
-0.064506 0.034899 0
-0.017017 0.058304 0
0.016147 0.068485 0
0.036467 0.069584 0
0.047581 0.065251 0
0.053829 0.057725 0
0.055923 0.048997 0
0.054668 0.039687 0
0.051647 0.030388 0
0.047669 0.022021 0
0.043227 0.015086 0
0.038757 0.009601 0
0.034594 0.005376 0
0.030834 0.002225 0
0.027404 -0.000010 0
0.024243 -0.001433 0
0.021301 -0.002162 0
0.018547 -0.002363 0
0.015951 -0.002180 0
0.013488 -0.001728 0
0.011149 -0.001104 0
0.008937 -0.000386 0
0.006857 0.000352 0
0.004917 0.001021 0
0.003147 0.001495 0
0.001620 0.001600 0
0.000487 0.001149 0
0.000000 0.000001 0
0.000000 0.000008 0
0.001317 0.126298 0
-0.000819 0.168269 0
-0.012084 0.151748 0
-0.027750 0.110012 0
-0.041675 0.068965 0
-0.053474 0.036133 0
-0.064969 0.009318 0
-0.077207 -0.013566 0
-0.090130 -0.033256 0
-0.104375 -0.050374 0
-0.120074 -0.065145 0
-0.137129 -0.077488 0
-0.155272 -0.087253 0
-0.174023 -0.094295 0
-0.192669 -0.098526 0
-0.210240 -0.099959 0
-0.225505 -0.098706 0
-0.236983 -0.094918 0
-0.242951 -0.088639 0
-0.241365 -0.079623 0
-0.229643 -0.067180 0
-0.204273 -0.050204 0
-0.161731 -0.026530 0
-0.108973 0.003482 0
-0.054971 0.030967 0
-0.008503 0.047909 0
0.025479 0.053139 0
0.045884 0.051080 0
0.055958 0.046862 0
0.059122 0.040627 0
0.059268 0.033085 0
0.057113 0.025904 0
0.053199 0.019666 0
0.048359 0.014344 0
0.043390 0.009906 0
0.038616 0.006442 0
0.034047 0.003953 0
0.029679 0.002296 0
0.025599 0.001298 0
0.021853 0.000830 0
0.018427 0.000778 0
0.015291 0.001022 0
0.012427 0.001452 0
0.009822 0.001980 0
0.007460 0.002530 0
0.005325 0.003005 0
0.003417 0.003244 0
0.001781 0.003009 0
0.000550 0.002011 0
0.000000 0.000001 0
0.000000 0.000009 0
0.002214 0.125668 0
0.002832 0.173410 0
-0.005089 0.164333 0
-0.020002 0.124897 0
-0.034662 0.082204 0
-0.047195 0.048189 0
-0.059450 0.021814 0
-0.072898 -0.000185 0
-0.087599 -0.018851 0
-0.103444 -0.034534 0
-0.120734 -0.047877 0
-0.139289 -0.059024 0
-0.158777 -0.068003 0
-0.178681 -0.074857 0
-0.198342 -0.079678 0
-0.216978 -0.082625 0
-0.233745 -0.083904 0
-0.247791 -0.083728 0
-0.258285 -0.082245 0
-0.264353 -0.079469 0
-0.264929 -0.075226 0
-0.258543 -0.069110 0
-0.243173 -0.060401 0
-0.215393 -0.048456 0
-0.173780 -0.031984 0
-0.124178 -0.010867 0
-0.073398 0.010864 0
-0.028815 0.027246 0
0.006878 0.035758 0
0.032180 0.036378 0
0.045822 0.032397 0
0.051399 0.028089 0
0.051659 0.023841 0
0.048948 0.019410 0
0.045066 0.015120 0
0.040641 0.011569 0
0.035892 0.008927 0
0.031118 0.007015 0
0.026601 0.005664 0
0.022462 0.004809 0
0.018703 0.004382 0
0.015314 0.004271 0
0.012292 0.004365 0
0.009621 0.004581 0
0.007269 0.004849 0
0.005196 0.005064 0
0.003373 0.005039 0
0.001807 0.004467 0
0.000590 0.002930 0
0.000000 0.000001 0
0.000000 0.000009 0
0.002875 0.123466 0
0.005517 0.175572 0
0.001167 0.174581 0
-0.012241 0.139585 0
-0.027474 0.096159 0
-0.040793 0.060921 0
-0.053618 0.035021 0
-0.067725 0.014583 0
-0.083778 -0.002709 0
-0.101259 -0.017239 0
-0.119814 -0.029300 0
-0.139377 -0.039445 0
-0.159624 -0.047862 0
-0.180044 -0.054730 0
-0.200082 -0.060229 0
-0.219115 -0.064556 0
-0.236540 -0.067893 0
-0.251808 -0.070377 0
-0.264446 -0.072077 0
-0.274049 -0.072978 0
-0.280234 -0.072990 0
-0.282556 -0.071960 0
-0.280391 -0.069680 0
-0.272756 -0.065911 0
-0.258545 -0.060248 0
-0.235637 -0.052473 0
-0.202902 -0.042224 0
-0.162393 -0.029196 0
-0.119060 -0.014133 0
-0.077376 0.001683 0
-0.042201 0.013866 0
-0.014597 0.020067 0
0.005442 0.022116 0
0.018124 0.020937 0
0.024128 0.018213 0
0.025756 0.015617 0
0.024817 0.013476 0
0.022588 0.011587 0
0.019892 0.009954 0
0.017107 0.008728 0
0.014369 0.007926 0
0.011792 0.007433 0
0.009463 0.007145 0
0.007413 0.007003 0
0.005635 0.006955 0
0.004090 0.006901 0
0.002737 0.006633 0
0.001551 0.005792 0
0.000561 0.003818 0
0.000000 0.000001 0
0.000000 0.000009 0
0.003319 0.120150 0
0.007386 0.175118 0
0.006187 0.182092 0
-0.004696 0.153538 0
-0.020218 0.110756 0
-0.034409 0.074333 0
-0.047802 0.048747 0
-0.062327 0.029975 0
-0.078809 0.014683 0
-0.097214 0.001503 0
-0.116853 -0.009759 0
-0.137245 -0.019215 0
-0.157892 -0.027336 0
-0.178429 -0.034398 0
-0.198488 -0.040607 0
-0.217602 -0.046166 0
-0.235359 -0.051211 0
-0.251388 -0.055823 0
-0.265349 -0.060004 0
-0.276940 -0.063680 0
-0.285888 -0.066719 0
-0.291947 -0.068952 0
-0.294888 -0.070200 0
-0.294481 -0.070302 0
-0.290485 -0.069103 0
-0.282474 -0.066510 0
-0.270148 -0.062380 0
-0.252827 -0.056596 0
-0.229916 -0.049259 0
-0.201390 -0.040481 0
-0.167837 -0.030383 0
-0.133491 -0.019554 0
-0.101030 -0.008880 0
-0.072504 0.000725 0
-0.049325 0.007488 0
-0.031624 0.010879 0
-0.018694 0.012095 0
-0.009871 0.011941 0
-0.004435 0.011145 0
-0.001407 0.010331 0
0.000171 0.009697 0
0.000906 0.009177 0
0.001193 0.008744 0
0.001247 0.008409 0
0.001197 0.008173 0
0.001088 0.007962 0
0.000930 0.007578 0
0.000697 0.006644 0
0.000350 0.004481 0
0.000000 0.000000 0
0.000000 0.000009 0
0.003582 0.116080 0
0.008591 0.172704 0
0.009759 0.186663 0
0.002202 0.165990 0
-0.013006 0.125872 0
-0.028093 0.088505 0
-0.042153 0.062939 0
-0.057006 0.045590 0
-0.073567 0.032178 0
-0.091859 0.020805 0
-0.111624 0.010731 0
-0.132203 0.001594 0
-0.153083 -0.006678 0
-0.173801 -0.014133 0
-0.193829 -0.021056 0
-0.212874 -0.027685 0
-0.230755 -0.034107 0
-0.247275 -0.040387 0
-0.262191 -0.046525 0
-0.275258 -0.052439 0
-0.286201 -0.057983 0
-0.294742 -0.062960 0
-0.300625 -0.067146 0
-0.303630 -0.070314 0
-0.303608 -0.072255 0
-0.300466 -0.072809 0
-0.294221 -0.071871 0
-0.284846 -0.069428 0
-0.272366 -0.065569 0
-0.256881 -0.060395 0
-0.238453 -0.054033 0
-0.217121 -0.046739 0
-0.193257 -0.038870 0
-0.167469 -0.030769 0
-0.140759 -0.022667 0
-0.115269 -0.015014 0
-0.092248 -0.008277 0
-0.072368 -0.002672 0
-0.055858 0.001490 0
-0.042524 0.004122 0
-0.031918 0.005613 0
-0.023578 0.006411 0
-0.017108 0.006804 0
-0.012131 0.006999 0
-0.008321 0.007114 0
-0.005343 0.007168 0
-0.003013 0.007025 0
-0.001284 0.006372 0
-0.000239 0.004515 0
0.000000 -0.000001 0
0.000000 0.000009 0
0.003696 0.111559 0
0.009256 0.168940 0
0.012100 0.188482 0
0.007751 0.176303 0
-0.005954 0.141051 0
-0.021822 0.103479 0
-0.036641 0.077660 0
-0.051816 0.061390 0
-0.068362 0.049536 0
-0.086303 0.039560 0
-0.105335 0.030585 0
-0.125162 0.022244 0
-0.145459 0.014263 0
-0.165763 0.006347 0
-0.185632 -0.001534 0
-0.204788 -0.009239 0
-0.222892 -0.016809 0
-0.239715 -0.024386 0
-0.255233 -0.032021 0
-0.269339 -0.039671 0
-0.281806 -0.047235 0
-0.292348 -0.054527 0
-0.300655 -0.061312 0
-0.306419 -0.067318 0
-0.309372 -0.072266 0
-0.309310 -0.075897 0
-0.306134 -0.078000 0
-0.299848 -0.078450 0
-0.290607 -0.077224 0
-0.278681 -0.074394 0
-0.264388 -0.070142 0
-0.248054 -0.064750 0
-0.230054 -0.058532 0
-0.210774 -0.051773 0
-0.190586 -0.044712 0
-0.169744 -0.037632 0
-0.148715 -0.030806 0
-0.127925 -0.024449 0
-0.107849 -0.018699 0
-0.089101 -0.013608 0
-0.072173 -0.009250 0
-0.057235 -0.005633 0
-0.044307 -0.002703 0
-0.033264 -0.000378 0
-0.023938 0.001385 0
-0.016145 0.002654 0
-0.009758 0.003519 0
-0.004771 0.003869 0
-0.001363 0.003198 0
0.000000 -0.000002 0
0.000000 0.000009 0
0.003692 0.106824 0
0.009500 0.164300 0
0.013451 0.188168 0
0.011618 0.184044 0
0.000644 0.155445 0
-0.015623 0.119192 0
-0.031179 0.092933 0
-0.046639 0.077311 0
-0.063055 0.066665 0
-0.080543 0.057778 0
-0.098833 0.049591 0
-0.117631 0.041718 0
-0.136660 0.033923 0
-0.155724 0.026040 0
-0.174728 0.017970 0
-0.193418 0.009575 0
-0.211472 0.000821 0
-0.228632 -0.008045 0
-0.244650 -0.016900 0
-0.259370 -0.025866 0
-0.272830 -0.034974 0
-0.284826 -0.044110 0
-0.295061 -0.053074 0
-0.303183 -0.061596 0
-0.308830 -0.069364 0
-0.311671 -0.076047 0
-0.311441 -0.081332 0
-0.307982 -0.084955 0
-0.301280 -0.086737 0
-0.291483 -0.086614 0
-0.278889 -0.084659 0
-0.263927 -0.081073 0
-0.247123 -0.076150 0
-0.229023 -0.070237 0
-0.210115 -0.063697 0
-0.190784 -0.056884 0
-0.171375 -0.050096 0
-0.152159 -0.043538 0
-0.133381 -0.037334 0
-0.115215 -0.031554 0
-0.097812 -0.026253 0
-0.081332 -0.021456 0
-0.065903 -0.017167 0
-0.051644 -0.013370 0
-0.038648 -0.010005 0
-0.027072 -0.007012 0
-0.017045 -0.004350 0
-0.008782 -0.002023 0
-0.002747 -0.000255 0
0.000000 -0.000005 0
0.000000 0.000009 0
0.003596 0.102059 0
0.009422 0.159181 0
0.014023 0.186364 0
0.014052 0.189110 0
0.006137 0.168292 0
-0.009559 0.135303 0
-0.025683 0.108676 0
-0.041374 0.093266 0
-0.057549 0.083439 0
-0.074463 0.075337 0
-0.091917 0.067674 0
-0.109664 0.060072 0
-0.127502 0.052356 0
-0.145296 0.044415 0
-0.162947 0.036160 0
-0.180361 0.027506 0
-0.197525 0.018406 0
-0.214326 0.008792 0
-0.230446 -0.001282 0
-0.245615 -0.011490 0
-0.259604 -0.021779 0
-0.272438 -0.032296 0
-0.283978 -0.042955 0
-0.293906 -0.053550 0
-0.301830 -0.063778 0
-0.307343 -0.073285 0
-0.310053 -0.081690 0