# vtk DataFile Version 2.0
generated by CFD-lab course output (written by Tobias Neckel) 
ASCII

DATASET STRUCTURED_GRID
DIMENSIONS  51 51 1 
POINTS 2601 float

0.000000 0.000000 0
0.020000 0.000000 0
0.040000 0.000000 0
0.060000 0.000000 0
0.080000 0.000000 0
0.100000 0.000000 0
0.120000 0.000000 0
0.140000 0.000000 0
0.160000 0.000000 0
0.180000 0.000000 0
0.200000 0.000000 0
0.220000 0.000000 0
0.240000 0.000000 0
0.260000 0.000000 0
0.280000 0.000000 0
0.300000 0.000000 0
0.320000 0.000000 0
0.340000 0.000000 0
0.360000 0.000000 0
0.380000 0.000000 0
0.400000 0.000000 0
0.420000 0.000000 0
0.440000 0.000000 0
0.460000 0.000000 0
0.480000 0.000000 0
0.500000 0.000000 0
0.520000 0.000000 0
0.540000 0.000000 0
0.560000 0.000000 0
0.580000 0.000000 0
0.600000 0.000000 0
0.620000 0.000000 0
0.640000 0.000000 0
0.660000 0.000000 0
0.680000 0.000000 0
0.700000 0.000000 0
0.720000 0.000000 0
0.740000 0.000000 0
0.760000 0.000000 0
0.780000 0.000000 0
0.800000 0.000000 0
0.820000 0.000000 0
0.840000 0.000000 0
0.860000 0.000000 0
0.880000 0.000000 0
0.900000 0.000000 0
0.920000 0.000000 0
0.940000 0.000000 0
0.960000 0.000000 0
0.980000 0.000000 0
1.000000 0.000000 0
0.000000 0.020000 0
0.020000 0.020000 0
0.040000 0.020000 0
0.060000 0.020000 0
0.080000 0.020000 0
0.100000 0.020000 0
0.120000 0.020000 0
0.140000 0.020000 0
0.160000 0.020000 0
0.180000 0.020000 0
0.200000 0.020000 0
0.220000 0.020000 0
0.240000 0.020000 0
0.260000 0.020000 0
0.280000 0.020000 0
0.300000 0.020000 0
0.320000 0.020000 0
0.340000 0.020000 0
0.360000 0.020000 0
0.380000 0.020000 0
0.400000 0.020000 0
0.420000 0.020000 0
0.440000 0.020000 0
0.460000 0.020000 0
0.480000 0.020000 0
0.500000 0.020000 0
0.520000 0.020000 0
0.540000 0.020000 0
0.560000 0.020000 0
0.580000 0.020000 0
0.600000 0.020000 0
0.620000 0.020000 0
0.640000 0.020000 0
0.660000 0.020000 0
0.680000 0.020000 0
0.700000 0.020000 0
0.720000 0.020000 0
0.740000 0.020000 0
0.760000 0.020000 0
0.780000 0.020000 0
0.800000 0.020000 0
0.820000 0.020000 0
0.840000 0.020000 0
0.860000 0.020000 0
0.880000 0.020000 0
0.900000 0.020000 0
0.920000 0.020000 0
0.940000 0.020000 0
0.960000 0.020000 0
0.980000 0.020000 0
1.000000 0.020000 0
0.000000 0.040000 0
0.020000 0.040000 0
0.040000 0.040000 0
0.060000 0.040000 0
0.080000 0.040000 0
0.100000 0.040000 0
0.120000 0.040000 0
0.140000 0.040000 0
0.160000 0.040000 0
0.180000 0.040000 0
0.200000 0.040000 0
0.220000 0.040000 0
0.240000 0.040000 0
0.260000 0.040000 0
0.280000 0.040000 0
0.300000 0.040000 0
0.320000 0.040000 0
0.340000 0.040000 0
0.360000 0.040000 0
0.380000 0.040000 0
0.400000 0.040000 0
0.420000 0.040000 0
0.440000 0.040000 0
0.460000 0.040000 0
0.480000 0.040000 0
0.500000 0.040000 0
0.520000 0.040000 0
0.540000 0.040000 0
0.560000 0.040000 0
0.580000 0.040000 0
0.600000 0.040000 0
0.620000 0.040000 0
0.640000 0.040000 0
0.660000 0.040000 0
0.680000 0.040000 0
0.700000 0.040000 0
0.720000 0.040000 0
0.740000 0.040000 0
0.760000 0.040000 0
0.780000 0.040000 0
0.800000 0.040000 0
0.820000 0.040000 0
0.840000 0.040000 0
0.860000 0.040000 0
0.880000 0.040000 0
0.900000 0.040000 0
0.920000 0.040000 0
0.940000 0.040000 0
0.960000 0.040000 0
0.980000 0.040000 0
1.000000 0.040000 0
0.000000 0.060000 0
0.020000 0.060000 0
0.040000 0.060000 0
0.060000 0.060000 0
0.080000 0.060000 0
0.100000 0.060000 0
0.120000 0.060000 0
0.140000 0.060000 0
0.160000 0.060000 0
0.180000 0.060000 0
0.200000 0.060000 0
0.220000 0.060000 0
0.240000 0.060000 0
0.260000 0.060000 0
0.280000 0.060000 0
0.300000 0.060000 0
0.320000 0.060000 0
0.340000 0.060000 0
0.360000 0.060000 0
0.380000 0.060000 0
0.400000 0.060000 0
0.420000 0.060000 0
0.440000 0.060000 0
0.460000 0.060000 0
0.480000 0.060000 0
0.500000 0.060000 0
0.520000 0.060000 0
0.540000 0.060000 0
0.560000 0.060000 0
0.580000 0.060000 0
0.600000 0.060000 0
0.620000 0.060000 0
0.640000 0.060000 0
0.660000 0.060000 0
0.680000 0.060000 0
0.700000 0.060000 0
0.720000 0.060000 0
0.740000 0.060000 0
0.760000 0.060000 0
0.780000 0.060000 0
0.800000 0.060000 0
0.820000 0.060000 0
0.840000 0.060000 0
0.860000 0.060000 0
0.880000 0.060000 0
0.900000 0.060000 0
0.920000 0.060000 0
0.940000 0.060000 0
0.960000 0.060000 0
0.980000 0.060000 0
1.000000 0.060000 0
0.000000 0.080000 0
0.020000 0.080000 0
0.040000 0.080000 0
0.060000 0.080000 0
0.080000 0.080000 0
0.100000 0.080000 0
0.120000 0.080000 0
0.140000 0.080000 0
0.160000 0.080000 0
0.180000 0.080000 0
0.200000 0.080000 0
0.220000 0.080000 0
0.240000 0.080000 0
0.260000 0.080000 0
0.280000 0.080000 0
0.300000 0.080000 0
0.320000 0.080000 0
0.340000 0.080000 0
0.360000 0.080000 0
0.380000 0.080000 0
0.400000 0.080000 0
0.420000 0.080000 0
0.440000 0.080000 0
0.460000 0.080000 0
0.480000 0.080000 0
0.500000 0.080000 0
0.520000 0.080000 0
0.540000 0.080000 0
0.560000 0.080000 0
0.580000 0.080000 0
0.600000 0.080000 0
0.620000 0.080000 0
0.640000 0.080000 0
0.660000 0.080000 0
0.680000 0.080000 0
0.700000 0.080000 0
0.720000 0.080000 0
0.740000 0.080000 0
0.760000 0.080000 0
0.780000 0.080000 0
0.800000 0.080000 0
0.820000 0.080000 0
0.840000 0.080000 0
0.860000 0.080000 0
0.880000 0.080000 0
0.900000 0.080000 0
0.920000 0.080000 0
0.940000 0.080000 0
0.960000 0.080000 0
0.980000 0.080000 0
1.000000 0.080000 0
0.000000 0.100000 0
0.020000 0.100000 0
0.040000 0.100000 0
0.060000 0.100000 0
0.080000 0.100000 0
0.100000 0.100000 0
0.120000 0.100000 0
0.140000 0.100000 0
0.160000 0.100000 0
0.180000 0.100000 0
0.200000 0.100000 0
0.220000 0.100000 0
0.240000 0.100000 0
0.260000 0.100000 0
0.280000 0.100000 0
0.300000 0.100000 0
0.320000 0.100000 0
0.340000 0.100000 0
0.360000 0.100000 0
0.380000 0.100000 0
0.400000 0.100000 0
0.420000 0.100000 0
0.440000 0.100000 0
0.460000 0.100000 0
0.480000 0.100000 0
0.500000 0.100000 0
0.520000 0.100000 0
0.540000 0.100000 0
0.560000 0.100000 0
0.580000 0.100000 0
0.600000 0.100000 0
0.620000 0.100000 0
0.640000 0.100000 0
0.660000 0.100000 0
0.680000 0.100000 0
0.700000 0.100000 0
0.720000 0.100000 0
0.740000 0.100000 0
0.760000 0.100000 0
0.780000 0.100000 0
0.800000 0.100000 0
0.820000 0.100000 0
0.840000 0.100000 0
0.860000 0.100000 0
0.880000 0.100000 0
0.900000 0.100000 0
0.920000 0.100000 0
0.940000 0.100000 0
0.960000 0.100000 0
0.980000 0.100000 0
1.000000 0.100000 0
0.000000 0.120000 0
0.020000 0.120000 0
0.040000 0.120000 0
0.060000 0.120000 0
0.080000 0.120000 0
0.100000 0.120000 0
0.120000 0.120000 0
0.140000 0.120000 0
0.160000 0.120000 0
0.180000 0.120000 0
0.200000 0.120000 0
0.220000 0.120000 0
0.240000 0.120000 0
0.260000 0.120000 0
0.280000 0.120000 0
0.300000 0.120000 0
0.320000 0.120000 0
0.340000 0.120000 0
0.360000 0.120000 0
0.380000 0.120000 0
0.400000 0.120000 0
0.420000 0.120000 0
0.440000 0.120000 0
0.460000 0.120000 0
0.480000 0.120000 0
0.500000 0.120000 0
0.520000 0.120000 0
0.540000 0.120000 0
0.560000 0.120000 0
0.580000 0.120000 0
0.600000 0.120000 0
0.620000 0.120000 0
0.640000 0.120000 0
0.660000 0.120000 0
0.680000 0.120000 0
0.700000 0.120000 0
0.720000 0.120000 0
0.740000 0.120000 0
0.760000 0.120000 0
0.780000 0.120000 0
0.800000 0.120000 0
0.820000 0.120000 0
0.840000 0.120000 0
0.860000 0.120000 0
0.880000 0.120000 0
0.900000 0.120000 0
0.920000 0.120000 0
0.940000 0.120000 0
0.960000 0.120000 0
0.980000 0.120000 0
1.000000 0.120000 0
0.000000 0.140000 0
0.020000 0.140000 0
0.040000 0.140000 0
0.060000 0.140000 0
0.080000 0.140000 0
0.100000 0.140000 0
0.120000 0.140000 0
0.140000 0.140000 0
0.160000 0.140000 0
0.180000 0.140000 0
0.200000 0.140000 0
0.220000 0.140000 0
0.240000 0.140000 0
0.260000 0.140000 0
0.280000 0.140000 0
0.300000 0.140000 0
0.320000 0.140000 0
0.340000 0.140000 0
0.360000 0.140000 0
0.380000 0.140000 0
0.400000 0.140000 0
0.420000 0.140000 0
0.440000 0.140000 0
0.460000 0.140000 0
0.480000 0.140000 0
0.500000 0.140000 0
0.520000 0.140000 0
0.540000 0.140000 0
0.560000 0.140000 0
0.580000 0.140000 0
0.600000 0.140000 0
0.620000 0.140000 0
0.640000 0.140000 0
0.660000 0.140000 0
0.680000 0.140000 0
0.700000 0.140000 0
0.720000 0.140000 0
0.740000 0.140000 0
0.760000 0.140000 0
0.780000 0.140000 0
0.800000 0.140000 0
0.820000 0.140000 0
0.840000 0.140000 0
0.860000 0.140000 0
0.880000 0.140000 0
0.900000 0.140000 0
0.920000 0.140000 0
0.940000 0.140000 0
0.960000 0.140000 0
0.980000 0.140000 0
1.000000 0.140000 0
0.000000 0.160000 0
0.020000 0.160000 0
0.040000 0.160000 0
0.060000 0.160000 0
0.080000 0.160000 0
0.100000 0.160000 0
0.120000 0.160000 0
0.140000 0.160000 0
0.160000 0.160000 0
0.180000 0.160000 0
0.200000 0.160000 0
0.220000 0.160000 0
0.240000 0.160000 0
0.260000 0.160000 0
0.280000 0.160000 0
0.300000 0.160000 0
0.320000 0.160000 0
0.340000 0.160000 0
0.360000 0.160000 0
0.380000 0.160000 0
0.400000 0.160000 0
0.420000 0.160000 0
0.440000 0.160000 0
0.460000 0.160000 0
0.480000 0.160000 0
0.500000 0.160000 0
0.520000 0.160000 0
0.540000 0.160000 0
0.560000 0.160000 0
0.580000 0.160000 0
0.600000 0.160000 0
0.620000 0.160000 0
0.640000 0.160000 0
0.660000 0.160000 0
0.680000 0.160000 0
0.700000 0.160000 0
0.720000 0.160000 0
0.740000 0.160000 0
0.760000 0.160000 0
0.780000 0.160000 0
0.800000 0.160000 0
0.820000 0.160000 0
0.840000 0.160000 0
0.860000 0.160000 0
0.880000 0.160000 0
0.900000 0.160000 0
0.920000 0.160000 0
0.940000 0.160000 0
0.960000 0.160000 0
0.980000 0.160000 0
1.000000 0.160000 0
0.000000 0.180000 0
0.020000 0.180000 0
0.040000 0.180000 0
0.060000 0.180000 0
0.080000 0.180000 0
0.100000 0.180000 0
0.120000 0.180000 0
0.140000 0.180000 0
0.160000 0.180000 0
0.180000 0.180000 0
0.200000 0.180000 0
0.220000 0.180000 0
0.240000 0.180000 0
0.260000 0.180000 0
0.280000 0.180000 0
0.300000 0.180000 0
0.320000 0.180000 0
0.340000 0.180000 0
0.360000 0.180000 0
0.380000 0.180000 0
0.400000 0.180000 0
0.420000 0.180000 0
0.440000 0.180000 0
0.460000 0.180000 0
0.480000 0.180000 0
0.500000 0.180000 0
0.520000 0.180000 0
0.540000 0.180000 0
0.560000 0.180000 0
0.580000 0.180000 0
0.600000 0.180000 0
0.620000 0.180000 0
[...]
POINT_DATA 2601 

VECTORS velocity float
0.000000 0.000000 0
-0.000002 0.000000 0
-0.000005 0.000000 0
-0.000008 0.000000 0
-0.000011 0.000000 0
-0.000014 0.000000 0
-0.000015 0.000000 0
-0.000015 0.000000 0
-0.000013 0.000000 0
-0.000009 0.000000 0
-0.000004 0.000000 0
0.000002 0.000000 0
0.000007 0.000000 0
0.000011 0.000000 0
0.000012 0.000000 0
0.000013 0.000000 0
0.000012 0.000000 0
0.000011 0.000000 0
0.000009 0.000000 0
0.000007 0.000000 0
0.000005 0.000000 0
0.000002 0.000000 0
-0.000000 0.000000 0
-0.000002 0.000000 0
-0.000004 0.000000 0
-0.000004 0.000000 0
-0.000004 0.000000 0
-0.000003 0.000000 0
-0.000001 0.000000 0
-0.000000 0.000000 0
0.000000 0.000000 0
0.000000 0.000000 0
0.000000 0.000000 0
0.000000 0.000000 0
0.000001 0.000000 0
0.000001 0.000000 0
0.000001 0.000000 0
0.000001 0.000000 0
0.000002 0.000000 0
0.000002 0.000000 0
0.000002 0.000000 0
0.000002 0.000000 0
0.000002 0.000000 0
0.000001 0.000000 0
0.000001 0.000000 0
0.000001 0.000000 0
0.000001 0.000000 0
0.000000 0.000000 0
0.000000 0.000000 0
-0.000000 0.000000 0
0.000000 0.000000 0
0.000000 0.000002 0
-0.007094 0.005482 0
-0.016181 0.004104 0
-0.020016 -0.000592 0
-0.018046 -0.005355 0
-0.010929 -0.009780 0
0.001055 -0.013480 0
0.017507 -0.016133 0
0.037369 -0.017345 0
0.059142 -0.016769 0
0.081310 -0.014543 0
0.101928 -0.010981 0
0.119175 -0.006775 0
0.131656 -0.002733 0
0.138628 0.000515 0
0.140110 0.002946 0
0.136900 0.004877 0
0.130050 0.006488 0
0.120328 0.007899 0
0.108310 0.009157 0
0.094495 0.010236 0
0.079401 0.011034 0
0.063626 0.011403 0
0.047864 0.011201 0
0.032869 0.010344 0
0.019387 0.008835 0
0.008099 0.006736 0
-0.000378 0.004212 0
-0.005516 0.001943 0
-0.007884 0.000534 0
-0.008676 -0.000106 0
-0.008776 -0.000272 0
-0.008686 -0.000224 0
-0.008622 -0.000116 0
-0.008645 -0.000020 0
-0.008738 0.000036 0
-0.008854 0.000047 0
-0.008936 0.000017 0
-0.008932 -0.000046 0
-0.008795 -0.000136 0
-0.008488 -0.000245 0
-0.007987 -0.000363 0
-0.007282 -0.000480 0
-0.006384 -0.000584 0
-0.005323 -0.000664 0
-0.004150 -0.000707 0
-0.002937 -0.000696 0
-0.001786 -0.000611 0
-0.000821 -0.000431 0
-0.000187 -0.000167 0
0.000000 -0.000000 0
0.000000 0.000005 0
-0.010609 0.016179 0
-0.024114 0.012921 0
-0.031814 0.001864 0
-0.032998 -0.009088 0
-0.028808 -0.019102 0
-0.019631 -0.028437 0
-0.005345 -0.036316 0
0.013790 -0.041636 0
0.037529 -0.043942 0
0.064746 -0.042788 0
0.093775 -0.037866 0
0.122340 -0.029729 0
0.147820 -0.019453 0
0.167545 -0.008454 0
0.179458 0.001728 0
0.182781 0.010060 0
0.178349 0.016572 0
0.167853 0.021740 0
0.152740 0.025832 0
0.134306 0.028909 0
0.113767 0.030870 0
0.092281 0.031537 0
0.070918 0.030757 0
0.050634 0.028478 0
0.032247 0.024770 0
0.016445 0.019765 0
0.003810 0.013615 0
-0.005108 0.007505 0
-0.010043 0.003160 0
-0.012404 0.000893 0
-0.013418 0.000010 0
-0.013866 -0.000154 0
-0.014144 -0.000040 0
-0.014410 0.000117 0
-0.014691 0.000209 0
-0.014948 0.000197 0
-0.015120 0.000078 0
-0.015132 -0.000140 0
-0.014915 -0.000443 0
-0.014412 -0.000809 0
-0.013585 -0.001207 0
-0.012421 -0.001602 0
-0.010939 -0.001958 0
-0.009188 -0.002234 0
-0.007252 -0.002386 0
-0.005248 -0.002364 0
-0.003328 -0.002116 0
-0.001673 -0.001598 0
-0.000489 -0.000820 0
0.000000 0.000000 0
0.000000 0.000008 0
-0.011831 0.029595 0
-0.027902 0.025308 0
-0.038912 0.008291 0
-0.043857 -0.008362 0
-0.043866 -0.023148 0
-0.039628 -0.036944 0
-0.031244 -0.049554 0
-0.018363 -0.060220 0
-0.000547 -0.067726 0
0.022159 -0.070789 0
0.049309 -0.068575 0
0.079341 -0.060820 0
0.110159 -0.047938 0
0.138778 -0.031123 0
0.161924 -0.012290 0
0.176705 0.005985 0
0.181152 0.021416 0
0.176410 0.033507 0
0.164350 0.042704 0
0.146992 0.049208 0
0.126308 0.053059 0
0.104063 0.054253 0
0.081717 0.052848 0
0.060396 0.049014 0
0.040928 0.043024 0
0.023899 0.035174 0
0.009709 0.025764 0
-0.001416 0.015796 0
-0.008725 0.007829 0
-0.012752 0.003269 0
-0.014874 0.001191 0
-0.016046 0.000502 0
-0.016802 0.000428 0
-0.017390 0.000526 0
-0.017891 0.000574 0
-0.018296 0.000476 0
-0.018550 0.000200 0
-0.018578 -0.000250 0
-0.018305 -0.000855 0
-0.017670 -0.001576 0
-0.016633 -0.002354 0
-0.015191 -0.003125 0
-0.013372 -0.003817 0
-0.011242 -0.004351 0
-0.008904 -0.004647 0
-0.006496 -0.004620 0
-0.004184 -0.004187 0
-0.002164 -0.003270 0
-0.000668 -0.001840 0
0.000000 0.000001 0
0.000000 0.000010 0
-0.011580 0.044080 0
-0.028837 0.040001 0
-0.042204 0.017818 0
-0.050015 -0.004134 0
-0.053116 -0.023331 0
-0.052434 -0.041060 0
-0.048154 -0.057581 0
-0.040222 -0.072334 0
-0.028463 -0.084463 0
-0.012398 -0.092643 0
0.008332 -0.095049 0
0.033721 -0.090579 0
0.062407 -0.078890 0
0.092425 -0.060219 0
0.120622 -0.036199 0
0.143697 -0.009168 0
0.158173 0.016866 0
0.161559 0.038541 0
0.155723 0.055250 0
0.142923 0.066952 0
0.125560 0.073799 0
0.105796 0.076128 0
0.085356 0.074423 0
0.065497 0.069267 0
0.047066 0.061267 0
0.030596 0.050984 0
0.016364 0.038930 0
0.004448 0.025939 0
-0.004815 0.014496 0
-0.010587 0.007042 0
-0.013886 0.003304 0
-0.015810 0.001774 0
-0.017037 0.001303 0
-0.017918 0.001206 0
-0.018596 0.001115 0
-0.019098 0.000856 0
-0.019388 0.000361 0
-0.019399 -0.000384 0
-0.019062 -0.001352 0
-0.018325 -0.002481 0
-0.017163 -0.003685 0
-0.015586 -0.004864 0
-0.013638 -0.005908 0
-0.011399 -0.006702 0
-0.008983 -0.007132 0
-0.006528 -0.007084 0
-0.004196 -0.006448 0
-0.002171 -0.005113 0
-0.000671 -0.002985 0
0.000000 0.000001 0
0.000000 0.000011 0
-0.010335 0.058431 0
-0.027654 0.055931 0
-0.042549 0.029469 0
-0.052362 0.002550 0
-0.057741 -0.020729 0
-0.059752 -0.041906 0
-0.058752 -0.061767 0
-0.054767 -0.079911 0
-0.047700 -0.095550 0
-0.037379 -0.107584 0
-0.023392 -0.114694 0
-0.005042 -0.114896 0
0.017627 -0.106643 0
0.044162 -0.089338 0
0.072019 -0.063562 0
0.098417 -0.031566 0
0.119704 0.003553 0
0.130691 0.035956 0
0.132052 0.061340 0
0.125789 0.079371 0
0.114264 0.090185 0
0.099559 0.094456 0
0.083359 0.093147 0
0.066921 0.087304 0
0.051112 0.077924 0
0.036476 0.065876 0
0.023283 0.051913 0
0.011588 0.036976 0
0.001450 0.022865 0
-0.006128 0.012340 0
-0.010770 0.006414 0
-0.013528 0.003653 0
-0.015226 0.002535 0
-0.016353 0.002085 0
-0.017138 0.001755 0
-0.017662 0.001267 0
-0.017920 0.000501 0
-0.017868 -0.000576 0
-0.017456 -0.001929 0
-0.016651 -0.003474 0
-0.015451 -0.005093 0
-0.013882 -0.006651 0
-0.012005 -0.008003 0
-0.009907 -0.009005 0
-0.007700 -0.009518 0
-0.005511 -0.009407 0
-0.003481 -0.008544 0
-0.001762 -0.006796 0
-0.000526 -0.004011 0
0.000000 0.000002 0
0.000000 0.000011 0
-0.008445 0.071734 0
-0.024872 0.072214 0
-0.040617 0.042526 0
-0.051864 0.011058 0
-0.059048 -0.015942 0
-0.063166 -0.040048 0
-0.064941 -0.062566 0
-0.064494 -0.083386 0
-0.061759 -0.101851 0
-0.056526 -0.116951 0
-0.048466 -0.127387 0
-0.037234 -0.131599 0
-0.022012 -0.128094 0
-0.002534 -0.114612 0
0.020893 -0.090455 0
0.046897 -0.056853 0
0.071268 -0.015408 0
0.089327 0.026193 0
0.097396 0.060152 0
0.098318 0.084740 0
0.094182 0.100029 0
0.086402 0.107032 0
0.076266 0.107061 0
0.064844 0.101514 0
0.052972 0.091711 0
0.041236 0.078812 0
0.029977 0.063818 0
0.019323 0.047773 0
0.009397 0.032213 0
0.000763 0.019262 0
-0.005433 0.010704 0
-0.009250 0.006229 0
-0.011530 0.004128 0
-0.012930 0.003118 0
-0.013798 0.002424 0
-0.014299 0.001638 0
-0.014482 0.000566 0
-0.014345 -0.000849 0
-0.013872 -0.002568 0
-0.013062 -0.004485 0
-0.011936 -0.006454 0
-0.010538 -0.008310 0
-0.008933 -0.009882 0
-0.007207 -0.011007 0
-0.005454 -0.011528 0
-0.003780 -0.011303 0
-0.002292 -0.010197 0
-0.001098 -0.008068 0
-0.000300 -0.004746 0
0.000000 0.000002 0
0.000000 0.000011 0
-0.006219 0.083302 0
-0.020942 0.088103 0
-0.036992 0.056461 0
-0.049341 0.020981 0
-0.057895 -0.009427 0
-0.063659 -0.036014 0
-0.067721 -0.060439 0
-0.070357 -0.083093 0
-0.071598 -0.103518 0
-0.071273 -0.120877 0
-0.069014 -0.133986 0
-0.064295 -0.141350 0
-0.056466 -0.141344 0
-0.045063 -0.132243 0
-0.028910 -0.112993 0
-0.008383 -0.081941 0
0.015182 -0.038877 0
0.039732 0.009828 0
0.055243 0.052349 0
0.063465 0.082585 0
0.067395 0.102101 0
0.067488 0.112372 0
0.064530 0.114706 0
0.059250 0.110598 0
0.052355 0.101532 0
0.044438 0.088871 0
0.035931 0.073826 0
0.027091 0.057555 0
0.018133 0.041425 0
0.009574 0.027169 0
0.002332 0.016427 0
-0.002727 0.009751 0
-0.005873 0.006216 0
-0.007707 0.004353 0
-0.008737 0.003124 0
-0.009254 0.001952 0
-0.009388 0.000546 0
-0.009197 -0.001187 0
-0.008727 -0.003212 0
-0.008015 -0.005410 0
-0.007105 -0.007617 0
-0.006051 -0.009653 0
-0.004914 -0.011334 0
-0.003759 -0.012485 0
-0.002655 -0.012945 0
-0.001674 -0.012569 0
-0.000881 -0.011226 0
-0.000333 -0.008787 0
-0.000052 -0.005108 0
0.000000 0.000003 0
0.000000 0.000011 0
-0.003942 0.092675 0
-0.016278 0.102987 0
-0.032108 0.070925 0
-0.045354 0.031961 0
-0.054935 -0.001624 0
-0.062052 -0.030222 0
-0.067964 -0.055868 0
-0.073183 -0.079510 0
-0.077881 -0.100935 0
-0.082005 -0.119536 0
-0.085255 -0.134365 0
-0.087055 -0.144147 0
-0.086560 -0.147327 0
-0.082807 -0.142169 0
-0.074727 -0.127135 0
-0.061907 -0.100945 0
-0.043151 -0.063523 0
-0.018712 -0.013869 0
0.006546 0.036419 0
0.024095 0.072587 0
0.036549 0.096005 0
0.044416 0.109897 0
0.048880 0.115299 0
0.050253 0.113690 0
0.048999 0.106523 0
0.045622 0.095235 0
0.040601 0.081164 0
0.034303 0.065571 0
0.027049 0.049731 0
0.019343 0.035063 0
0.012050 0.023005 0
0.006113 0.014434 0
0.001992 0.009107 0
-0.000543 0.005983 0
-0.001969 0.003972 0
-0.002666 0.002289 0
-0.002877 0.000510 0
-0.002751 -0.001509 0
-0.002409 -0.003751 0
-0.001939 -0.006108 0
-0.001407 -0.008418 0
-0.000870 -0.010501 0
-0.000371 -0.012174 0
0.000054 -0.013265 0
0.000373 -0.013614 0
0.000554 -0.013077 0
0.000575 -0.011537 0
0.000432 -0.008898 0
0.000186 -0.005079 0
0.000000 0.000003 0
0.000000 0.000010 0
-0.001863 0.099580 0
-0.011256 0.116268 0
-0.026259 0.085537 0
-0.040226 0.043809 0
-0.050759 0.007270 0
-0.059072 -0.022986 0
-0.066460 -0.049307 0
-0.073793 -0.073176 0
-0.081376 -0.094696 0
-0.089283 -0.113503 0
-0.097336 -0.128936 0
-0.105049 -0.140046 0
-0.111571 -0.145592 0
-0.115679 -0.144076 0
-0.115819 -0.133894 0
-0.110439 -0.113517 0
-0.097988 -0.082073 0
-0.077941 -0.039870 0
-0.048311 0.009542 0
-0.019662 0.052583 0
0.002025 0.081779 0
0.018496 0.100041 0
0.030321 0.108869 0
0.038256 0.110479 0
0.042845 0.106162 0
0.044439 0.097268 0
0.043482 0.085145 0
0.040380 0.071108 0
0.035512 0.056385 0
0.029391 0.042168 0
0.022826 0.029657 0
0.016777 0.019809 0
0.011988 0.012871 0
0.008654 0.008313 0
0.006582 0.005247 0
0.005439 0.002860 0
0.004908 0.000631 0
0.004743 -0.001654 0
0.004751 -0.004023 0
0.004789 -0.006412 0
0.004768 -0.008686 0
0.004634 -0.010690 0
0.004366 -0.012258 0
0.003960 -0.013228 0
0.003419 -0.013445 0
0.002755 -0.012771 0
0.001983 -0.011104 0
0.001153 -0.008399 0
0.000400 -0.004676 0
0.000000 0.000003 0
0.000000 0.000009 0
-0.000187 0.103930 0
-0.006244 0.127383 0
-0.019735 0.099895 0
-0.034232 0.056461 0
-0.045780 0.017221 0
-0.055210 -0.014522 0
-0.063818 -0.041147 0
-0.072892 -0.064593 0
-0.082847 -0.085446 0
-0.093835 -0.103576 0
-0.105778 -0.118599 0
-0.118314 -0.129913 0
-0.130714 -0.136698 0
-0.141791 -0.137920 0
-0.149841 -0.132375 0
-0.152685 -0.118776 0
-0.147779 -0.096021 0
-0.132807 -0.063545 0
-0.106294 -0.021860 0
-0.070200 0.022250 0
-0.037201 0.057848 0
-0.011082 0.081602 0
0.008935 0.095538 0
0.023727 0.101165 0
0.034062 0.100341 0
0.040732 0.094598 0
0.044199 0.085224 0
0.044813 0.073541 0
0.042922 0.060718 0
0.039024 0.047749 0
0.033916 0.035619 0
0.028497 0.025271 0
0.023576 0.017231 0
0.019643 0.011389 0
0.016832 0.007186 0
0.014995 0.003962 0
0.013842 0.001206 0
0.013073 -0.001351 0
0.012476 -0.003798 0
0.011857 -0.006125 0
0.011105 -0.008263 0
0.010172 -0.010099 0
0.009051 -0.011499 0
0.007763 -0.012318 0
0.006344 -0.012409 0
0.004835 -0.011641 0
0.003289 -0.009935 0
0.001804 -0.007315 0
0.000584 -0.003927 0
0.000000 0.000003 0
0.000000 0.000009 0
0.001076 0.105824 0
-0.001634 0.135816 0
-0.012858 0.113525 0
-0.027553 0.069853 0
-0.040173 0.028248 0
-0.050636 -0.004948 0
-0.060425 -0.031626 0
-0.070996 -0.054147 0
-0.082920 -0.073753 0
-0.096370 -0.090572 0
-0.111296 -0.104457 0
-0.127409 -0.115111 0
-0.144109 -0.122115 0
-0.160395 -0.124949 0
-0.174758 -0.123001 0
-0.185112 -0.115580 0
-0.188797 -0.101950 0
-0.182826 -0.081355 0
-0.164356 -0.053066 0
-0.131623 -0.016510 0
-0.089730 0.022661 0
-0.049511 0.053904 0
-0.018017 0.074059 0
0.005763 0.085353 0
0.022818 0.089159 0
0.034544 0.087130 0
0.042569 0.081063 0
0.047237 0.072385 0
0.048763 0.062174 0
0.047581 0.051175 0
0.044549 0.040184 0
0.040447 0.030148 0
0.035998 0.021725 0
0.031831 0.015057 0
0.028371 0.009896 0
0.025716 0.005851 0
0.023700 0.002553 0
0.022046 -0.000288 0
0.020526 -0.002807 0
0.018998 -0.005040 0
0.017339 -0.007001 0
0.015499 -0.008637 0
0.013474 -0.009849 0
0.011295 -0.010521 0
0.009017 -0.010517 0
0.006706 -0.009716 0
0.004442 -0.008072 0
0.002364 -0.005694 0
0.000736 -0.002872 0
0.000000 0.000003 0
0.000000 0.000009 0
0.002056 0.105564 0
0.002213 0.141317 0
-0.006003 0.125814 0
-0.020331 0.083776 0
-0.033957 0.040304 0
-0.045421 0.005730 0
-0.056532 -0.020787 0
-0.068432 -0.042099 0
-0.082014 -0.060072 0
-0.097420 -0.075201 0
-0.114555 -0.087560 0
-0.133115 -0.097100 0
-0.152563 -0.103712 0
-0.172077 -0.107271 0
-0.190488 -0.107658 0
-0.206222 -0.104737 0
-0.217266 -0.098308 0
-0.221200 -0.087986 0
-0.215282 -0.073063 0
-0.196633 -0.052375 0
-0.162551 -0.024264 0
-0.116818 0.009888 0
-0.068649 0.040265 0
-0.026883 0.060330 0
0.003965 0.071560 0
0.024763 0.074847 0
0.038416 0.072531 0
0.047516 0.067348 0
0.052700 0.060375 0
0.054474 0.051963 0
0.053995 0.042753 0
0.051761 0.033822 0
0.048281 0.025847 0
0.044252 0.019017 0
0.040369 0.013302 0
0.036944 0.008633 0
0.033948 0.004877 0
0.031209 0.001823 0
0.028545 -0.000750 0
0.025878 -0.002938 0
0.023159 -0.004764 0
0.020337 -0.006234 0
0.017391 -0.007294 0
0.014355 -0.007862 0
0.011289 -0.007821 0
0.008267 -0.007066 0
0.005386 -0.005592 0
0.002812 -0.003608 0
0.000853 -0.001563 0
0.000000 0.000002 0
0.000000 0.000008 0
0.002784 0.103611 0
0.005110 0.143875 0
0.000407 0.136069 0
-0.012800 0.097807 0
-0.027244 0.053337 0
-0.039761 0.017627 0
-0.052097 -0.008615 0
-0.065308 -0.028666 0
-0.080320 -0.044766 0
-0.097279 -0.058031 0
-0.116007 -0.068762 0
-0.136131 -0.077103 0
-0.157117 -0.083153 0
-0.178256 -0.087024 0
-0.198671 -0.088856 0
-0.217311 -0.088802 0
-0.232952 -0.086972 0
-0.244174 -0.083339 0
-0.249289 -0.077633 0
-0.246213 -0.069240 0
-0.232293 -0.057154 0
-0.204165 -0.039999 0
-0.161147 -0.015875 0
-0.110519 0.012740 0
-0.059105 0.037512 0
-0.014149 0.052679 0
0.018587 0.058310 0
0.039785 0.058102 0
0.051855 0.055216 0
0.057769 0.049879 0
0.060748 0.042897 0
0.060946 0.035863 0
0.058773 0.029233 0
0.055180 0.022968 0
0.051220 0.017204 0
0.047257 0.012272 0
0.043325 0.008289 0
0.039427 0.005114 0
0.035594 0.002524 0
0.031801 0.000346 0
0.028027 -0.001461 0
0.024237 -0.002869 0
0.020435 -0.003867 0
0.016652 -0.004418 0
0.012941 -0.004429 0
0.009369 -0.003813 0
0.006035 -0.002617 0
0.003116 -0.001162 0
0.000936 -0.000060 0
0.000000 0.000002 0
0.000000 0.000008 0
0.003271 0.100454 0
0.007137 0.143694 0
0.005714 0.143725 0
-0.005221 0.111427 0
-0.020192 0.067264 0
-0.033696 0.030583 0
-0.046856 0.004760 0
-0.061517 -0.013876 0
-0.077830 -0.028102 0
-0.096020 -0.039513 0
-0.115860 -0.048708 0
-0.136899 -0.055991 0
-0.158610 -0.061587 0
-0.180360 -0.065717 0
-0.201472 -0.068602 0
-0.221249 -0.070456 0
-0.238995 -0.071444 0
-0.253995 -0.071649 0
-0.265467 -0.071024 0
-0.272453 -0.069371 0
-0.273655 -0.066312 0
-0.267280 -0.061258 0
-0.250900 -0.053382 0
-0.221140 -0.041711 0
-0.178453 -0.024809 0
-0.128274 -0.002846 0
-0.077056 0.018597 0
-0.030941 0.034080 0
0.006802 0.042391 0
0.034221 0.043070 0
0.050357 0.039576 0
0.058216 0.035796 0
0.060272 0.031613 0
0.058964 0.026570 0
0.056412 0.021224 0
0.052935 0.016527 0
0.048701 0.012707 0
0.044073 0.009555 0
0.039453 0.006876 0
0.034957 0.004629 0
0.030523 0.002800 0
0.026130 0.001358 0
0.021804 0.000290 0
0.017589 -0.000367 0
0.013539 -0.000538 0
0.009717 -0.000160 0
0.006219 0.000662 0
0.003214 0.001491 0
0.000985 0.001553 0
0.000000 0.000002 0
0.000000 0.000008 0
0.003557 0.096473 0
0.008447 0.141432 0
0.009498 0.148427 0
0.001898 0.123714 0
-0.012986 0.081812 0
-0.027383 0.044291 0
-0.041137 0.019206 0
-0.056612 0.002308 0
-0.074181 -0.010263 0
-0.093490 -0.020001 0
-0.114090 -0.027883 0
-0.135586 -0.034353 0
-0.157520 -0.039692 0
-0.179335 -0.044162 0
-0.200500 -0.047966 0
-0.220540 -0.051279 0
-0.239042 -0.054226 0
-0.255621 -0.056866 0
-0.269904 -0.059174 0
-0.281491 -0.061052 0
-0.289896 -0.062327 0
-0.294479 -0.062754 0
-0.294349 -0.062014 0
-0.288255 -0.059707 0
-0.274561 -0.055354 0
-0.250797 -0.048717 0
-0.215700 -0.039022 0
-0.172712 -0.025755 0
-0.126203 -0.009946 0
-0.080766 0.006323 0
-0.041477 0.018903 0
-0.009457 0.025948 0
0.014679 0.028484 0
0.030534 0.026828 0
0.038452 0.023234 0
0.041156 0.019984 0
0.040530 0.017151 0
0.038050 0.014362 0
0.034846 0.011640 0
0.031307 0.009275 0
0.027531 0.007366 0
0.023627 0.005850 0
0.019702 0.004673 0
0.015856 0.003847 0
0.012173 0.003444 0
0.008721 0.003508 0
0.005600 0.003886 0
0.002951 0.004073 0
0.000958 0.003154 0
0.000000 0.000001 0
0.000000 0.000008 0
0.003674 0.092007 0
0.009151 0.137752 0
0.011929 0.150274 0
0.007626 0.133911 0
-0.005877 0.096544 0
-0.021143 0.058734 0
-0.035602 0.033989 0
-0.051249 0.019167 0
-0.069231 0.008777 0
-0.089034 0.000396 0
-0.110107 -0.006612 0
-0.131930 -0.012561 0
-0.153904 -0.017838 0
-0.175566 -0.022736 0
-0.196526 -0.027397 0
-0.216481 -0.031913 0
-0.235211 -0.036362 0
-0.252470 -0.040787 0
-0.268030 -0.045154 0
-0.281664 -0.049379 0
-0.293095 -0.053325 0
-0.302013 -0.056805 0
-0.308052 -0.059605 0
-0.310784 -0.061499 0
-0.309682 -0.062267 0
-0.304092 -0.061707 0
-0.293495 -0.059488 0
-0.276696 -0.055416 0
-0.252801 -0.049555 0
-0.221711 -0.041655 0
-0.184722 -0.031732 0
-0.145856 -0.020360 0
-0.108060 -0.008378 0
-0.074039 0.002797 0
-0.046159 0.010602 0
-0.024519 0.014450 0
-0.008571 0.015813 0
0.002196 0.015239 0
0.008403 0.013620 0
0.011329 0.011943 0
0.012178 0.010480 0
0.011737 0.009187 0
0.010550 0.008061 0
0.008939 0.007162 0
0.007129 0.006597 0
0.005263 0.006413 0
0.003494 0.006431 0
0.001953 0.006134 0
0.000719 0.004504 0
0.000000 0.000001 0
0.000000 0.000008 0
0.003655 0.087322 0
0.009376 0.133177 0
0.013257 0.149953 0
0.011470 0.141519 0
0.000703 0.110581 0
-0.015150 0.074017 0
-0.030440 0.049311 0
-0.046423 0.035937 0
-0.064161 0.027522 0
-0.083606 0.020875 0
-0.104279 0.015014 0
-0.125597 0.009444 0
-0.147064 0.003944 0
-0.168364 -0.001539 0
-0.189195 -0.007051 0
-0.209237 -0.012594 0
-0.228156 -0.018237 0
-0.245776 -0.024046 0
-0.262025 -0.029981 0
-0.276800 -0.035987 0
-0.289891 -0.041977 0
-0.301044 -0.047797 0
-0.309948 -0.053243 0
-0.316283 -0.058077 0
-0.319742 -0.062046 0
-0.320062 -0.064904 0
-0.317039 -0.066418 0
-0.310386 -0.066450 0
-0.299971 -0.064930 0
-0.285780 -0.061755 0
-0.267561 -0.056953 0
-0.245302 -0.050714 0
-0.219180 -0.043332 0
-0.189800 -0.035073 0
-0.158498 -0.026287 0
-0.128149 -0.017604 0
-0.100314 -0.009564 0
-0.076037 -0.002612 0
-0.055985 0.002508 0
-0.040076 0.005500 0
-0.027815 0.006958 0
-0.018645 0.007478 0
-0.012042 0.007471 0
-0.007491 0.007268 0
-0.004521 0.007120 0
-0.002583 0.007143 0
-0.001293 0.007196 0
-0.000427 0.006847 0
0.000028 0.005107 0
0.000000 -0.000000 0
0.000000 0.000008 0
0.003530 0.082630 0
0.009232 0.128150 0
0.013707 0.148181 0
0.013700 0.146465 0
0.005933 0.123164 0
-0.009521 0.089877 0
-0.025531 0.065262 0
-0.041915 0.052889 0
-0.059535 0.045960 0
-0.078387 0.040514 0
-0.098036 0.035380 0
-0.118120 0.030224 0
-0.138434 0.024929 0
-0.158750 0.019395 0
-0.178844 0.013476 0
-0.198469 0.007048 0
-0.217375 0.000177 0
-0.235390 -0.006917 0
-0.252273 -0.014129 0
-0.267803 -0.021513 0
-0.281938 -0.029081 0
-0.294572 -0.036747 0
-0.305441 -0.044366 0
-0.314214 -0.051705 0
-0.320537 -0.058488 0
-0.324077 -0.064409 0
-0.324553 -0.069163 0
-0.321755 -0.072484 0
-0.315634 -0.074162 0
-0.306257 -0.074066 0