# vtk DataFile Version 2.0
generated by CFD-lab course output (written by Tobias Neckel) 
ASCII

DATASET STRUCTURED_GRID
DIMENSIONS  51 51 1 
POINTS 2601 float

0.000000 0.000000 0
0.020000 0.000000 0
0.040000 0.000000 0
0.060000 0.000000 0
0.080000 0.000000 0
0.100000 0.000000 0
0.120000 0.000000 0
0.140000 0.000000 0
0.160000 0.000000 0
0.180000 0.000000 0
0.200000 0.000000 0
0.220000 0.000000 0
0.240000 0.000000 0
0.260000 0.000000 0
0.280000 0.000000 0
0.300000 0.000000 0
0.320000 0.000000 0
0.340000 0.000000 0
0.360000 0.000000 0
0.380000 0.000000 0
0.400000 0.000000 0
0.420000 0.000000 0
0.440000 0.000000 0
0.460000 0.000000 0
0.480000 0.000000 0
0.500000 0.000000 0
0.520000 0.000000 0
0.540000 0.000000 0
0.560000 0.000000 0
0.580000 0.000000 0
0.600000 0.000000 0
0.620000 0.000000 0
0.640000 0.000000 0
0.660000 0.000000 0
0.680000 0.000000 0
0.700000 0.000000 0
0.720000 0.000000 0
0.740000 0.000000 0
0.760000 0.000000 0
0.780000 0.000000 0
0.800000 0.000000 0
0.820000 0.000000 0
0.840000 0.000000 0
0.860000 0.000000 0
0.880000 0.000000 0
0.900000 0.000000 0
0.920000 0.000000 0
0.940000 0.000000 0
0.960000 0.000000 0
0.980000 0.000000 0
1.000000 0.000000 0
0.000000 0.020000 0
0.020000 0.020000 0
0.040000 0.020000 0
0.060000 0.020000 0
0.080000 0.020000 0
0.100000 0.020000 0
0.120000 0.020000 0
0.140000 0.020000 0
0.160000 0.020000 0
0.180000 0.020000 0
0.200000 0.020000 0
0.220000 0.020000 0
0.240000 0.020000 0
0.260000 0.020000 0
0.280000 0.020000 0
0.300000 0.020000 0
0.320000 0.020000 0
0.340000 0.020000 0
0.360000 0.020000 0
0.380000 0.020000 0
0.400000 0.020000 0
0.420000 0.020000 0
0.440000 0.020000 0
0.460000 0.020000 0
0.480000 0.020000 0
0.500000 0.020000 0
0.520000 0.020000 0
0.540000 0.020000 0
0.560000 0.020000 0
0.580000 0.020000 0
0.600000 0.020000 0
0.620000 0.020000 0
0.640000 0.020000 0
0.660000 0.020000 0
0.680000 0.020000 0
0.700000 0.020000 0
0.720000 0.020000 0
0.740000 0.020000 0
0.760000 0.020000 0
0.780000 0.020000 0
0.800000 0.020000 0
0.820000 0.020000 0
0.840000 0.020000 0
0.860000 0.020000 0
0.880000 0.020000 0
0.900000 0.020000 0
0.920000 0.020000 0
0.940000 0.020000 0
0.960000 0.020000 0
0.980000 0.020000 0
1.000000 0.020000 0
0.000000 0.040000 0
0.020000 0.040000 0
0.040000 0.040000 0
0.060000 0.040000 0
0.080000 0.040000 0
0.100000 0.040000 0
0.120000 0.040000 0
0.140000 0.040000 0
0.160000 0.040000 0
0.180000 0.040000 0
0.200000 0.040000 0
0.220000 0.040000 0
0.240000 0.040000 0
0.260000 0.040000 0
0.280000 0.040000 0
0.300000 0.040000 0
0.320000 0.040000 0
0.340000 0.040000 0
0.360000 0.040000 0
0.380000 0.040000 0
0.400000 0.040000 0
0.420000 0.040000 0
0.440000 0.040000 0
0.460000 0.040000 0
0.480000 0.040000 0
0.500000 0.040000 0
0.520000 0.040000 0
0.540000 0.040000 0
0.560000 0.040000 0
0.580000 0.040000 0
0.600000 0.040000 0
0.620000 0.040000 0
0.640000 0.040000 0
0.660000 0.040000 0
0.680000 0.040000 0
0.700000 0.040000 0
0.720000 0.040000 0
0.740000 0.040000 0
0.760000 0.040000 0
0.780000 0.040000 0
0.800000 0.040000 0
0.820000 0.040000 0
0.840000 0.040000 0
0.860000 0.040000 0
0.880000 0.040000 0
0.900000 0.040000 0
0.920000 0.040000 0
0.940000 0.040000 0
0.960000 0.040000 0
0.980000 0.040000 0
1.000000 0.040000 0
0.000000 0.060000 0
0.020000 0.060000 0
0.040000 0.060000 0
0.060000 0.060000 0
0.080000 0.060000 0
0.100000 0.060000 0
0.120000 0.060000 0
0.140000 0.060000 0
0.160000 0.060000 0
0.180000 0.060000 0
0.200000 0.060000 0
0.220000 0.060000 0
0.240000 0.060000 0
0.260000 0.060000 0
0.280000 0.060000 0
0.300000 0.060000 0
0.320000 0.060000 0
0.340000 0.060000 0
0.360000 0.060000 0
0.380000 0.060000 0
0.400000 0.060000 0
0.420000 0.060000 0
0.440000 0.060000 0
0.460000 0.060000 0
0.480000 0.060000 0
0.500000 0.060000 0
0.520000 0.060000 0
0.540000 0.060000 0
0.560000 0.060000 0
0.580000 0.060000 0
0.600000 0.060000 0
0.620000 0.060000 0
0.640000 0.060000 0
0.660000 0.060000 0
0.680000 0.060000 0
0.700000 0.060000 0
0.720000 0.060000 0
0.740000 0.060000 0
0.760000 0.060000 0
0.780000 0.060000 0
0.800000 0.060000 0
0.820000 0.060000 0
0.840000 0.060000 0
0.860000 0.060000 0
0.880000 0.060000 0
0.900000 0.060000 0
0.920000 0.060000 0
0.940000 0.060000 0
0.960000 0.060000 0
0.980000 0.060000 0
1.000000 0.060000 0
0.000000 0.080000 0
0.020000 0.080000 0
0.040000 0.080000 0
0.060000 0.080000 0
0.080000 0.080000 0
0.100000 0.080000 0
0.120000 0.080000 0
0.140000 0.080000 0
0.160000 0.080000 0
0.180000 0.080000 0
0.200000 0.080000 0
0.220000 0.080000 0
0.240000 0.080000 0
0.260000 0.080000 0
0.280000 0.080000 0
0.300000 0.080000 0
0.320000 0.080000 0
0.340000 0.080000 0
0.360000 0.080000 0
0.380000 0.080000 0
0.400000 0.080000 0
0.420000 0.080000 0
0.440000 0.080000 0
0.460000 0.080000 0
0.480000 0.080000 0
0.500000 0.080000 0
0.520000 0.080000 0
0.540000 0.080000 0
0.560000 0.080000 0
0.580000 0.080000 0
0.600000 0.080000 0
0.620000 0.080000 0
0.640000 0.080000 0
0.660000 0.080000 0
0.680000 0.080000 0
0.700000 0.080000 0
0.720000 0.080000 0
0.740000 0.080000 0
0.760000 0.080000 0
0.780000 0.080000 0
0.800000 0.080000 0
0.820000 0.080000 0
0.840000 0.080000 0
0.860000 0.080000 0
0.880000 0.080000 0
0.900000 0.080000 0
0.920000 0.080000 0
0.940000 0.080000 0
0.960000 0.080000 0
0.980000 0.080000 0
1.000000 0.080000 0
0.000000 0.100000 0
0.020000 0.100000 0
0.040000 0.100000 0
0.060000 0.100000 0
0.080000 0.100000 0
0.100000 0.100000 0
0.120000 0.100000 0
0.140000 0.100000 0
0.160000 0.100000 0
0.180000 0.100000 0
0.200000 0.100000 0
0.220000 0.100000 0
0.240000 0.100000 0
0.260000 0.100000 0
0.280000 0.100000 0
0.300000 0.100000 0
0.320000 0.100000 0
0.340000 0.100000 0
0.360000 0.100000 0
0.380000 0.100000 0
0.400000 0.100000 0
0.420000 0.100000 0
0.440000 0.100000 0
0.460000 0.100000 0
0.480000 0.100000 0
0.500000 0.100000 0
0.520000 0.100000 0
0.540000 0.100000 0
0.560000 0.100000 0
0.580000 0.100000 0
0.600000 0.100000 0
0.620000 0.100000 0
0.640000 0.100000 0
0.660000 0.100000 0
0.680000 0.100000 0
0.700000 0.100000 0
0.720000 0.100000 0
0.740000 0.100000 0
0.760000 0.100000 0
0.780000 0.100000 0
0.800000 0.100000 0
0.820000 0.100000 0
0.840000 0.100000 0
0.860000 0.100000 0
0.880000 0.100000 0
0.900000 0.100000 0
0.920000 0.100000 0
0.940000 0.100000 0
0.960000 0.100000 0
0.980000 0.100000 0
1.000000 0.100000 0
0.000000 0.120000 0
0.020000 0.120000 0
0.040000 0.120000 0
0.060000 0.120000 0
0.080000 0.120000 0
0.100000 0.120000 0
0.120000 0.120000 0
0.140000 0.120000 0
0.160000 0.120000 0
0.180000 0.120000 0
0.200000 0.120000 0
0.220000 0.120000 0
0.240000 0.120000 0
0.260000 0.120000 0
0.280000 0.120000 0
0.300000 0.120000 0
0.320000 0.120000 0
0.340000 0.120000 0
0.360000 0.120000 0
0.380000 0.120000 0
0.400000 0.120000 0
0.420000 0.120000 0
0.440000 0.120000 0
0.460000 0.120000 0
0.480000 0.120000 0
0.500000 0.120000 0
0.520000 0.120000 0
0.540000 0.120000 0
0.560000 0.120000 0
0.580000 0.120000 0
0.600000 0.120000 0
0.620000 0.120000 0
0.640000 0.120000 0
0.660000 0.120000 0
0.680000 0.120000 0
0.700000 0.120000 0
0.720000 0.120000 0
0.740000 0.120000 0
0.760000 0.120000 0
0.780000 0.120000 0
0.800000 0.120000 0
0.820000 0.120000 0
0.840000 0.120000 0
0.860000 0.120000 0
0.880000 0.120000 0
0.900000 0.120000 0
0.920000 0.120000 0
0.940000 0.120000 0
0.960000 0.120000 0
0.980000 0.120000 0
1.000000 0.120000 0
0.000000 0.140000 0
0.020000 0.140000 0
0.040000 0.140000 0
0.060000 0.140000 0
0.080000 0.140000 0
0.100000 0.140000 0
0.120000 0.140000 0
0.140000 0.140000 0
0.160000 0.140000 0
0.180000 0.140000 0
0.200000 0.140000 0
0.220000 0.140000 0
0.240000 0.140000 0
0.260000 0.140000 0
0.280000 0.140000 0
0.300000 0.140000 0
0.320000 0.140000 0
0.340000 0.140000 0
0.360000 0.140000 0
0.380000 0.140000 0
0.400000 0.140000 0
0.420000 0.140000 0
0.440000 0.140000 0
0.460000 0.140000 0
0.480000 0.140000 0
0.500000 0.140000 0
0.520000 0.140000 0
0.540000 0.140000 0
0.560000 0.140000 0
0.580000 0.140000 0
0.600000 0.140000 0
0.620000 0.140000 0
0.640000 0.140000 0
0.660000 0.140000 0
0.680000 0.140000 0
0.700000 0.140000 0
0.720000 0.140000 0
0.740000 0.140000 0
0.760000 0.140000 0
0.780000 0.140000 0
0.800000 0.140000 0
0.820000 0.140000 0
0.840000 0.140000 0
0.860000 0.140000 0
0.880000 0.140000 0
0.900000 0.140000 0
0.920000 0.140000 0
0.940000 0.140000 0
0.960000 0.140000 0
0.980000 0.140000 0
1.000000 0.140000 0
0.000000 0.160000 0
0.020000 0.160000 0
0.040000 0.160000 0
0.060000 0.160000 0
0.080000 0.160000 0
0.100000 0.160000 0
0.120000 0.160000 0
0.140000 0.160000 0
0.160000 0.160000 0
0.180000 0.160000 0
0.200000 0.160000 0
0.220000 0.160000 0
0.240000 0.160000 0
0.260000 0.160000 0
0.280000 0.160000 0
0.300000 0.160000 0
0.320000 0.160000 0
0.340000 0.160000 0
0.360000 0.160000 0
0.380000 0.160000 0
0.400000 0.160000 0
0.420000 0.160000 0
0.440000 0.160000 0
0.460000 0.160000 0
0.480000 0.160000 0
0.500000 0.160000 0
0.520000 0.160000 0
0.540000 0.160000 0
0.560000 0.160000 0
0.580000 0.160000 0
0.600000 0.160000 0
0.620000 0.160000 0
0.640000 0.160000 0
0.660000 0.160000 0
0.680000 0.160000 0
0.700000 0.160000 0
0.720000 0.160000 0
0.740000 0.160000 0
0.760000 0.160000 0
0.780000 0.160000 0
0.800000 0.160000 0
0.820000 0.160000 0
0.840000 0.160000 0
0.860000 0.160000 0
0.880000 0.160000 0
0.900000 0.160000 0
0.920000 0.160000 0
0.940000 0.160000 0
0.960000 0.160000 0
0.980000 0.160000 0
1.000000 0.160000 0
0.000000 0.180000 0
0.020000 0.180000 0
0.040000 0.180000 0
0.060000 0.180000 0
0.080000 0.180000 0
0.100000 0.180000 0
0.120000 0.180000 0
0.140000 0.180000 0
0.160000 0.180000 0
0.180000 0.180000 0
0.200000 0.180000 0
0.220000 0.180000 0
0.240000 0.180000 0
0.260000 0.180000 0
0.280000 0.180000 0
0.300000 0.180000 0
0.320000 0.180000 0
0.340000 0.180000 0
0.360000 0.180000 0
0.380000 0.180000 0
0.400000 0.180000 0
0.420000 0.180000 0
0.440000 0.180000 0
0.460000 0.180000 0
0.480000 0.180000 0
0.500000 0.180000 0
0.520000 0.180000 0
0.540000 0.180000 0
0.560000 0.180000 0
0.580000 0.180000 0
0.600000 0.180000 0
0.620000 0.180000 0
[...]
POINT_DATA 2601 

VECTORS velocity float
0.000000 0.000000 0
0.000000 0.000000 0
0.000000 0.000000 0
0.000000 0.000000 0
0.000000 0.000000 0
0.000000 0.000000 0
0.000000 0.000000 0
0.000000 0.000000 0
-0.000000 0.000000 0
-0.000000 0.000000 0
-0.000000 0.000000 0
-0.000000 0.000000 0
-0.000000 0.000000 0
-0.000000 0.000000 0
-0.000000 0.000000 0
0.000000 0.000000 0
0.000000 0.000000 0
0.000000 0.000000 0
0.000001 0.000000 0
0.000001 0.000000 0
0.000001 0.000000 0
0.000001 0.000000 0
0.000002 0.000000 0
0.000002 0.000000 0
0.000003 0.000000 0
0.000003 0.000000 0
0.000003 0.000000 0
0.000004 0.000000 0
0.000004 0.000000 0
0.000005 0.000000 0
0.000005 0.000000 0
0.000006 0.000000 0
0.000006 0.000000 0
0.000007 0.000000 0
0.000007 0.000000 0
0.000007 0.000000 0
0.000007 0.000000 0
0.000007 0.000000 0
0.000007 0.000000 0
0.000007 0.000000 0
0.000007 0.000000 0
0.000006 0.000000 0
0.000006 0.000000 0
0.000006 0.000000 0
0.000005 0.000000 0
0.000004 0.000000 0
0.000004 0.000000 0
0.000003 0.000000 0
0.000002 0.000000 0
0.000001 0.000000 0
0.000000 0.000000 0
0.000000 -0.000000 0
-0.000071 0.000070 0
-0.000273 0.000146 0
-0.000554 0.000186 0
-0.000866 0.000199 0
-0.001185 0.000199 0
-0.001501 0.000196 0
-0.001811 0.000191 0
-0.002113 0.000185 0
-0.002404 0.000178 0
-0.002685 0.000171 0
-0.002954 0.000163 0
-0.003209 0.000154 0
-0.003450 0.000144 0
-0.003675 0.000133 0
-0.003883 0.000122 0
-0.004073 0.000110 0
-0.004245 0.000098 0
-0.004396 0.000084 0
-0.004527 0.000071 0
-0.004636 0.000057 0
-0.004722 0.000042 0
-0.004786 0.000027 0
-0.004827 0.000012 0
-0.004844 -0.000003 0
-0.004838 -0.000018 0
-0.004808 -0.000032 0
-0.004755 -0.000047 0
-0.004679 -0.000061 0
-0.004581 -0.000074 0
-0.004462 -0.000087 0
-0.004322 -0.000099 0
-0.004163 -0.000110 0
-0.003986 -0.000120 0
-0.003792 -0.000129 0
-0.003583 -0.000137 0
-0.003360 -0.000144 0
-0.003125 -0.000150 0
-0.002880 -0.000155 0
-0.002625 -0.000159 0
-0.002362 -0.000163 0
-0.002092 -0.000165 0
-0.001817 -0.000167 0
-0.001538 -0.000168 0
-0.001255 -0.000169 0
-0.000971 -0.000168 0
-0.000689 -0.000163 0
-0.000420 -0.000146 0
-0.000188 -0.000104 0
-0.000034 -0.000034 0
0.000000 0.000001 0
0.000000 -0.000000 0
-0.000147 0.000272 0
-0.000484 0.000482 0
-0.000927 0.000591 0
-0.001413 0.000630 0
-0.001910 0.000635 0
-0.002403 0.000625 0
-0.002888 0.000611 0
-0.003359 0.000592 0
-0.003816 0.000572 0
-0.004257 0.000549 0
-0.004678 0.000523 0
-0.005079 0.000495 0
-0.005458 0.000465 0
-0.005812 0.000432 0
-0.006141 0.000398 0
-0.006442 0.000361 0
-0.006714 0.000322 0
-0.006956 0.000281 0
-0.007166 0.000239 0
-0.007343 0.000195 0
-0.007486 0.000150 0
-0.007594 0.000104 0
-0.007666 0.000057 0
-0.007702 0.000010 0
-0.007702 -0.000037 0
-0.007665 -0.000083 0
-0.007593 -0.000129 0
-0.007484 -0.000174 0
-0.007341 -0.000218 0
-0.007163 -0.000260 0
-0.006954 -0.000299 0
-0.006713 -0.000337 0
-0.006443 -0.000371 0
-0.006146 -0.000403 0
-0.005823 -0.000432 0
-0.005477 -0.000458 0
-0.005110 -0.000481 0
-0.004724 -0.000501 0
-0.004322 -0.000518 0
-0.003905 -0.000533 0
-0.003475 -0.000545 0
-0.003034 -0.000555 0
-0.002585 -0.000562 0
-0.002129 -0.000567 0
-0.001670 -0.000566 0
-0.001213 -0.000551 0
-0.000775 -0.000502 0
-0.000386 -0.000387 0
-0.000104 -0.000188 0
0.000000 0.000002 0
0.000000 -0.000000 0
-0.000188 0.000553 0
-0.000600 0.000926 0
-0.001128 0.001114 0
-0.001701 0.001181 0
-0.002285 0.001190 0
-0.002866 0.001173 0
-0.003435 0.001146 0
-0.003991 0.001113 0
-0.004529 0.001075 0
-0.005047 0.001032 0
-0.005543 0.000985 0
-0.006016 0.000933 0
-0.006462 0.000876 0
-0.006880 0.000816 0
-0.007268 0.000752 0
-0.007624 0.000683 0
-0.007946 0.000611 0
-0.008233 0.000536 0
-0.008482 0.000457 0
-0.008693 0.000376 0
-0.008865 0.000293 0
-0.008995 0.000207 0
-0.009084 0.000120 0
-0.009130 0.000033 0
-0.009134 -0.000055 0
-0.009095 -0.000142 0
-0.009013 -0.000228 0
-0.008889 -0.000313 0
-0.008724 -0.000395 0
-0.008519 -0.000474 0
-0.008275 -0.000550 0
-0.007995 -0.000621 0
-0.007679 -0.000688 0
-0.007331 -0.000749 0
-0.006953 -0.000806 0
-0.006547 -0.000857 0
-0.006115 -0.000903 0
-0.005660 -0.000944 0
-0.005184 -0.000979 0
-0.004691 -0.001010 0
-0.004182 -0.001036 0
-0.003660 -0.001057 0
-0.003126 -0.001073 0
-0.002585 -0.001084 0
-0.002039 -0.001084 0
-0.001495 -0.001058 0
-0.000970 -0.000974 0
-0.000498 -0.000775 0
-0.000144 -0.000419 0
0.000000 0.000003 0
0.000000 -0.000000 0
-0.000206 0.000872 0
-0.000653 0.001422 0
-0.001221 0.001692 0
-0.001835 0.001788 0
-0.002460 0.001799 0
-0.003080 0.001775 0
-0.003689 0.001735 0
-0.004282 0.001685 0
-0.004856 0.001628 0
-0.005410 0.001563 0
-0.005941 0.001492 0
-0.006445 0.001414 0
-0.006923 0.001329 0
-0.007370 0.001238 0
-0.007785 0.001141 0
-0.008166 0.001038 0
-0.008511 0.000930 0
-0.008818 0.000817 0
-0.009086 0.000699 0
-0.009313 0.000577 0
-0.009497 0.000451 0
-0.009639 0.000323 0
-0.009735 0.000192 0
-0.009786 0.000060 0
-0.009792 -0.000073 0
-0.009751 -0.000205 0
-0.009665 -0.000335 0
-0.009533 -0.000464 0
-0.009358 -0.000588 0
-0.009139 -0.000708 0
-0.008879 -0.000823 0
-0.008580 -0.000932 0
-0.008242 -0.001035 0
-0.007870 -0.001130 0
-0.007465 -0.001217 0
-0.007030 -0.001296 0
-0.006567 -0.001368 0
-0.006080 -0.001431 0
-0.005571 -0.001487 0
-0.005042 -0.001535 0
-0.004497 -0.001576 0
-0.003938 -0.001610 0
-0.003367 -0.001637 0
-0.002787 -0.001654 0
-0.002203 -0.001655 0
-0.001621 -0.001619 0
-0.001056 -0.001499 0
-0.000546 -0.001214 0
-0.000159 -0.000686 0
0.000000 0.000004 0
0.000000 -0.000000 0
-0.000212 0.001206 0
-0.000677 0.001941 0
-0.001265 0.002296 0
-0.001900 0.002420 0
-0.002546 0.002434 0
-0.003185 0.002402 0
-0.003813 0.002347 0
-0.004425 0.002280 0
-0.005018 0.002203 0
-0.005590 0.002116 0
-0.006137 0.002020 0
-0.006659 0.001914 0
-0.007152 0.001800 0
-0.007614 0.001678 0
-0.008044 0.001547 0
-0.008438 0.001409 0
-0.008796 0.001263 0
-0.009115 0.001111 0
-0.009393 0.000952 0
-0.009630 0.000787 0
-0.009822 0.000618 0
-0.009970 0.000444 0
-0.010071 0.000268 0
-0.010126 0.000089 0
-0.010133 -0.000090 0
-0.010093 -0.000269 0
-0.010005 -0.000446 0
-0.009870 -0.000620 0
-0.009688 -0.000789 0
-0.009462 -0.000953 0
-0.009193 -0.001109 0
-0.008882 -0.001258 0
-0.008532 -0.001397 0
-0.008145 -0.001527 0
-0.007725 -0.001646 0
-0.007273 -0.001755 0
-0.006793 -0.001853 0
-0.006288 -0.001940 0
-0.005760 -0.002017 0
-0.005213 -0.002083 0
-0.004648 -0.002140 0
-0.004070 -0.002187 0
-0.003480 -0.002224 0
-0.002881 -0.002248 0
-0.002277 -0.002251 0
-0.001676 -0.002205 0
-0.001092 -0.002048 0
-0.000564 -0.001673 0
-0.000163 -0.000965 0
0.000000 0.000005 0
0.000000 -0.000000 0
-0.000216 0.001548 0
-0.000690 0.002474 0
-0.001292 0.002915 0
-0.001941 0.003068 0
-0.002601 0.003084 0
-0.003254 0.003042 0
-0.003895 0.002974 0
-0.004520 0.002890 0
-0.005126 0.002792 0
-0.005711 0.002682 0
-0.006271 0.002561 0
-0.006804 0.002428 0
-0.007309 0.002284 0
-0.007783 0.002129 0
-0.008224 0.001965 0
-0.008630 0.001790 0
-0.008998 0.001607 0
-0.009327 0.001414 0
-0.009615 0.001213 0
-0.009860 0.001006 0
-0.010060 0.000791 0
-0.010214 0.000572 0
-0.010321 0.000348 0
-0.010380 0.000121 0
-0.010390 -0.000106 0
-0.010351 -0.000334 0
-0.010263 -0.000559 0
-0.010125 -0.000780 0
-0.009940 -0.000996 0
-0.009708 -0.001204 0
-0.009431 -0.001404 0
-0.009112 -0.001593 0
-0.008751 -0.001771 0
-0.008353 -0.001937 0
-0.007919 -0.002089 0
-0.007454 -0.002228 0
-0.006959 -0.002353 0
-0.006439 -0.002465 0
-0.005896 -0.002562 0
-0.005333 -0.002647 0
-0.004754 -0.002719 0
-0.004160 -0.002779 0
-0.003555 -0.002826 0
-0.002942 -0.002857 0
-0.002324 -0.002861 0
-0.001709 -0.002804 0
-0.001112 -0.002611 0
-0.000572 -0.002143 0
-0.000164 -0.001250 0
0.000000 0.000006 0
0.000000 -0.000000 0
-0.000219 0.001895 0
-0.000702 0.003017 0
-0.001316 0.003546 0
-0.001979 0.003729 0
-0.002651 0.003747 0
-0.003318 0.003696 0
-0.003972 0.003613 0
-0.004610 0.003511 0
-0.005229 0.003393 0
-0.005825 0.003260 0
-0.006398 0.003113 0
-0.006944 0.002953 0
-0.007461 0.002779 0
-0.007947 0.002592 0
-0.008400 0.002393 0
-0.008817 0.002182 0
-0.009197 0.001960 0
-0.009537 0.001727 0
-0.009835 0.001484 0
-0.010090 0.001232 0
-0.010300 0.000972 0
-0.010462 0.000706 0
-0.010577 0.000434 0
-0.010641 0.000158 0
-0.010655 -0.000120 0
-0.010619 -0.000397 0
-0.010531 -0.000672 0
-0.010392 -0.000943 0
-0.010203 -0.001207 0
-0.009966 -0.001462 0
-0.009681 -0.001706 0
-0.009352 -0.001939 0
-0.008980 -0.002156 0
-0.008569 -0.002359 0
-0.008121 -0.002546 0
-0.007640 -0.002716 0
-0.007130 -0.002868 0
-0.006593 -0.003004 0
-0.006034 -0.003123 0
-0.005455 -0.003226 0
-0.004859 -0.003313 0
-0.004249 -0.003385 0
-0.003629 -0.003442 0
-0.003001 -0.003479 0
-0.002368 -0.003484 0
-0.001739 -0.003416 0
-0.001130 -0.003184 0
-0.000579 -0.002621 0
-0.000164 -0.001538 0
0.000000 0.000007 0
0.000000 0.000000 0
-0.000223 0.002249 0
-0.000716 0.003570 0
-0.001342 0.004191 0
-0.002019 0.004403 0
-0.002707 0.004424 0
-0.003388 0.004363 0
-0.004056 0.004266 0
-0.004708 0.004146 0
-0.005341 0.004007 0
-0.005952 0.003851 0
-0.006538 0.003679 0
-0.007098 0.003490 0
-0.007629 0.003287 0
-0.008129 0.003068 0
-0.008595 0.002834 0
-0.009026 0.002587 0
-0.009419 0.002326 0
-0.009772 0.002052 0
-0.010084 0.001767 0
-0.010351 0.001470 0
-0.010572 0.001163 0
-0.010745 0.000848 0
-0.010868 0.000527 0
-0.010940 0.000200 0
-0.010960 -0.000129 0
-0.010927 -0.000459 0
-0.010840 -0.000786 0
-0.010700 -0.001108 0
-0.010508 -0.001422 0
-0.010264 -0.001727 0
-0.009971 -0.002018 0
-0.009630 -0.002295 0
-0.009245 -0.002555 0
-0.008819 -0.002796 0
-0.008355 -0.003018 0
-0.007856 -0.003219 0
-0.007327 -0.003400 0
-0.006771 -0.003561 0
-0.006192 -0.003701 0
-0.005594 -0.003822 0
-0.004979 -0.003924 0
-0.004351 -0.004009 0
-0.003712 -0.004074 0
-0.003067 -0.004118 0
-0.002418 -0.004122 0
-0.001773 -0.004042 0
-0.001150 -0.003770 0
-0.000587 -0.003109 0
-0.000165 -0.001829 0
0.000000 0.000008 0
0.000000 0.000000 0
-0.000227 0.002610 0
-0.000731 0.004136 0
-0.001373 0.004849 0
-0.002066 0.005093 0
-0.002769 0.005115 0
-0.003467 0.005046 0
-0.004152 0.004933 0
-0.004820 0.004795 0
-0.005469 0.004636 0
-0.006095 0.004457 0
-0.006698 0.004259 0
-0.007273 0.004043 0
-0.007820 0.003809 0
-0.008336 0.003558 0
-0.008818 0.003290 0
-0.009265 0.003006 0
-0.009674 0.002706 0
-0.010043 0.002391 0
-0.010369 0.002062 0
-0.010651 0.001720 0
-0.010885 0.001366 0
-0.011071 0.001002 0
-0.011205 0.000629 0
-0.011287 0.000250 0
-0.011314 -0.000133 0
-0.011286 -0.000517 0
-0.011202 -0.000899 0
-0.011061 -0.001275 0
-0.010865 -0.001643 0
-0.010614 -0.001999 0
-0.010311 -0.002341 0
-0.009958 -0.002664 0
-0.009557 -0.002968 0
-0.009113 -0.003250 0
-0.008629 -0.003509 0
-0.008109 -0.003743 0
-0.007558 -0.003953 0
-0.006979 -0.004139 0
-0.006377 -0.004301 0
-0.005755 -0.004439 0
-0.005118 -0.004556 0
-0.004468 -0.004652 0
-0.003808 -0.004726 0
-0.003142 -0.004774 0
-0.002474 -0.004778 0
-0.001811 -0.004684 0
-0.001172 -0.004370 0
-0.000596 -0.003606 0
-0.000166 -0.002125 0
0.000000 0.000009 0
0.000000 0.000000 0
-0.000233 0.002980 0
-0.000749 0.004715 0
-0.001407 0.005524 0
-0.002118 0.005800 0
-0.002841 0.005825 0
-0.003557 0.005745 0
-0.004260 0.005618 0
-0.004946 0.005462 0
-0.005613 0.005282 0
-0.006258 0.005080 0
-0.006878 0.004856 0
-0.007471 0.004612 0
-0.008036 0.004349 0
-0.008570 0.004065 0
-0.009070 0.003763 0
-0.009535 0.003442 0
-0.009962 0.003103 0
-0.010349 0.002747 0
-0.010693 0.002374 0
-0.010992 0.001986 0
-0.011243 0.001583 0
-0.011444 0.001168 0
-0.011592 0.000742 0
-0.011685 0.000308 0
-0.011722 -0.000131 0
-0.011700 -0.000572 0
-0.011619 -0.001011 0
-0.011479 -0.001445 0
-0.011279 -0.001870 0
-0.011021 -0.002281 0
-0.010706 -0.002675 0
-0.010338 -0.003049 0
-0.009920 -0.003400 0
-0.009454 -0.003724 0
-0.008947 -0.004022 0
-0.008402 -0.004291 0
-0.007825 -0.004531 0
-0.007219 -0.004742 0
-0.006589 -0.004925 0
-0.005941 -0.005081 0
-0.005277 -0.005212 0
-0.004601 -0.005318 0
-0.003917 -0.005400 0
-0.003228 -0.005452 0
-0.002538 -0.005453 0
-0.001854 -0.005345 0
-0.001197 -0.004985 0
-0.000606 -0.004114 0
-0.000167 -0.002426 0
0.000000 0.000011 0
0.000000 0.000000 0
-0.000238 0.003359 0
-0.000769 0.005310 0
-0.001445 0.006218 0
-0.002177 0.006526 0
-0.002920 0.006554 0
-0.003657 0.006465 0
-0.004381 0.006322 0
-0.005087 0.006148 0
-0.005774 0.005947 0
-0.006438 0.005721 0
-0.007078 0.005472 0
-0.007692 0.005201 0
-0.008276 0.004907 0
-0.008830 0.004592 0
-0.009351 0.004255 0
-0.009836 0.003898 0
-0.010284 0.003520 0
-0.010691 0.003122 0
-0.011056 0.002705 0
-0.011375 0.002270 0
-0.011646 0.001818 0
-0.011865 0.001350 0
-0.012030 0.000870 0
-0.012138 0.000379 0
-0.012186 -0.000119 0
-0.012173 -0.000620 0
-0.012097 -0.001121 0
-0.011958 -0.001616 0
-0.011754 -0.002102 0
-0.011488 -0.002572 0
-0.011161 -0.003024 0
-0.010776 -0.003451 0
-0.010337 -0.003852 0
-0.009847 -0.004223 0
-0.009313 -0.004561 0
-0.008739 -0.004866 0
-0.008130 -0.005137 0
-0.007492 -0.005374 0
-0.006831 -0.005579 0
-0.006151 -0.005752 0
-0.005456 -0.005896 0
-0.004751 -0.006011 0
-0.004039 -0.006099 0
-0.003323 -0.006154 0
-0.002608 -0.006151 0
-0.001902 -0.006026 0
-0.001223 -0.005618 0
-0.000616 -0.004635 0
-0.000167 -0.002731 0
0.000000 0.000012 0
0.000000 0.000001 0
-0.000245 0.003748 0
-0.000791 0.005922 0
-0.001488 0.006932 0
-0.002242 0.007274 0
-0.003008 0.007305 0
-0.003767 0.007206 0
-0.004513 0.007048 0
-0.005242 0.006855 0
-0.005950 0.006633 0
-0.006637 0.006384 0
-0.007298 0.006109 0
-0.007934 0.005810 0
-0.008540 0.005487 0
-0.009116 0.005140 0
-0.009660 0.004769 0
-0.010168 0.004375 0
-0.010639 0.003958 0
-0.011070 0.003519 0
-0.011458 0.003058 0
-0.011801 0.002575 0
-0.012094 0.002073 0
-0.012335 0.001552 0
-0.012520 0.001015 0
-0.012646 0.000465 0
-0.012709 -0.000095 0
-0.012708 -0.000661 0
-0.012639 -0.001227 0
-0.012502 -0.001788 0
-0.012296 -0.002339 0
-0.012022 -0.002874 0
-0.011681 -0.003388 0
-0.011277 -0.003874 0
-0.010814 -0.004329 0
-0.010296 -0.004749 0
-0.009730 -0.005131 0
-0.009121 -0.005474 0
-0.008477 -0.005777 0
-0.007802 -0.006041 0
-0.007103 -0.006266 0
-0.006387 -0.006456 0
-0.005656 -0.006612 0
-0.004917 -0.006735 0
-0.004173 -0.006828 0
-0.003427 -0.006883 0
-0.002684 -0.006875 0
-0.001952 -0.006729 0
-0.001251 -0.006270 0
-0.000627 -0.005170 0
-0.000167 -0.003042 0
0.000000 0.000014 0
0.000000 0.000001 0
-0.000252 0.004149 0
-0.000815 0.006552 0
-0.001534 0.007668 0
-0.002312 0.008046 0
-0.003103 0.008079 0
-0.003888 0.007970 0
-0.004658 0.007797 0
-0.005411 0.007585 0
-0.006143 0.007341 0
-0.006853 0.007069 0
-0.007538 0.006769 0
-0.008197 0.006442 0
-0.008827 0.006090 0
-0.009428 0.005711 0
-0.009996 0.005307 0
-0.010530 0.004877 0
-0.011027 0.004422 0
-0.011484 0.003941 0
-0.011899 0.003435 0
-0.012268 0.002905 0
-0.012588 0.002351 0
-0.012854 0.001776 0
-0.013064 0.001180 0
-0.013211 0.000568 0
-0.013294 -0.000057 0
-0.013308 -0.000691 0
-0.013250 -0.001327 0
-0.013117 -0.001960 0
-0.012910 -0.002582 0
-0.012628 -0.003188 0
-0.012273 -0.003769 0
-0.011847 -0.004319 0
-0.011357 -0.004833 0
-0.010807 -0.005307 0
-0.010203 -0.005736 0
-0.009554 -0.006120 0
-0.008867 -0.006457 0
-0.008149 -0.006747 0
-0.007407 -0.006994 0
-0.006648 -0.007199 0
-0.005877 -0.007365 0
-0.005099 -0.007495 0
-0.004319 -0.007589 0
-0.003539 -0.007642 0
-0.002765 -0.007626 0
-0.002005 -0.007458 0
-0.001280 -0.006943 0
-0.000636 -0.005719 0
-0.000166 -0.003358 0
0.000000 0.000016 0
0.000000 0.000001 0
-0.000259 0.004562 0
-0.000841 0.007204 0
-0.001584 0.008429 0
-0.002389 0.008843 0
-0.003207 0.008880 0
-0.004018 0.008760 0
-0.004815 0.008571 0
-0.005593 0.008339 0
-0.006351 0.008074 0
-0.007086 0.007778 0
-0.007796 0.007453 0
-0.008481 0.007099 0
-0.009137 0.006718 0
-0.009764 0.006308 0
-0.010359 0.005871 0
-0.010920 0.005405 0
-0.011446 0.004912 0
-0.011932 0.004391 0
-0.012377 0.003841 0
-0.012777 0.003264 0
-0.013127 0.002658 0
-0.013424 0.002027 0
-0.013662 0.001371 0
-0.013837 0.000694 0
-0.013943 0.000000 0
-0.013977 -0.000706 0
-0.013933 -0.001418 0
-0.013809 -0.002128 0
-0.013602 -0.002829 0
-0.013313 -0.003512 0
-0.012942 -0.004168 0
-0.012494 -0.004790 0
-0.011972 -0.005370 0
-0.011384 -0.005902 0
-0.010738 -0.006383 0
-0.010042 -0.006810 0
-0.009306 -0.007182 0
-0.008537 -0.007501 0
-0.007745 -0.007768 0
-0.006936 -0.007986 0
-0.006118 -0.008160 0
-0.005296 -0.008294 0
-0.004474 -0.008388 0
-0.003657 -0.008436 0
-0.002849 -0.008408 0
-0.002059 -0.008214 0
-0.001308 -0.007639 0
-0.000644 -0.006283 0
-0.000164 -0.003678 0
0.000000 0.000019 0
0.000000 0.000001 0
-0.000267 0.004988 0
-0.000869 0.007877 0
-0.001639 0.009217 0
-0.002473 0.009668 0
-0.003319 0.009708 0
-0.004159 0.009577 0
-0.004983 0.009371 0
-0.005789 0.009120 0
-0.006574 0.008833 0
-0.007335 0.008514 0
-0.008072 0.008163 0
-0.008784 0.007783 0
-0.009467 0.007372 0
-0.010122 0.006932 0
-0.010746 0.006463 0
-0.011338 0.005964 0
-0.011894 0.005433 0
-0.012414 0.004872 0
-0.012892 0.004279 0
-0.013326 0.003655 0
-0.013712 0.002998 0
-0.014044 0.002310 0
-0.014316 0.001593 0
-0.014524 0.000849 0
-0.014660 0.000082 0
-0.014718 -0.000702 0
-0.014694 -0.001496 0
-0.014582 -0.002291 0
-0.014380 -0.003079 0
-0.014085 -0.003848 0
-0.013699 -0.004588 0
-0.013225 -0.005290 0
-0.012669 -0.005943 0
-0.012038 -0.006541 0
-0.011342 -0.007079 0
-0.010591 -0.007552 0
-0.009796 -0.007962 0
-0.008968 -0.008308 0
-0.008117 -0.008594 0
-0.007251 -0.008825 0
-0.006379 -0.009004 0
-0.005507 -0.009138 0
-0.004639 -0.009228 0
-0.003780 -0.009268 0
-0.002935 -0.009224 0
-0.002112 -0.008999 0
-0.001333 -0.008357 0
-0.000650 -0.006862 0
-0.000161 -0.004002 0
0.000000 0.000022 0
0.000000 0.000001 0
-0.000275 0.005429 0
-0.000899 0.008575 0
-0.001697 0.010033 0
-0.002562 0.010523 0
-0.003440 0.010566 0
-0.004309 0.010424 0
-0.005164 0.010200 0
-0.005998 0.009929 0
-0.006811 0.009620 0
-0.007601 0.009277 0
-0.008366 0.008901 0
-0.009105 0.008494 0
-0.009817 0.008056 0
-0.010502 0.007586 0
-0.011157 0.007086 0
-0.011780 0.006553 0
-0.012371 0.005988 0
-0.012926 0.005388 0
-0.013442 0.004754 0
-0.013915 0.004083 0
-0.014340 0.003375 0
-0.014713 0.002631 0
-0.015026 0.001851 0
-0.015273 0.001037 0
-0.015446 0.000195 0
-0.015537 -0.000672 0
-0.015540 -0.001554 0
-0.015446 -0.002443 0
-0.015253 -0.003327 0
-0.014955 -0.004193 0
-0.014555 -0.005029 0
-0.014054 -0.005821 0
-0.013458 -0.006557 0
-0.012778 -0.007230 0
-0.012023 -0.007830 0
-0.011208 -0.008356 0
-0.010344 -0.008805 0
-0.009447 -0.009180 0
-0.008526 -0.009484 0
-0.007594 -0.009723 0
-0.006660 -0.009904 0
-0.005730 -0.010034 0
-0.004810 -0.010114 0
-0.003905 -0.010140 0
-0.003019 -0.010076 0
-0.002161 -0.009815 0
-0.001355 -0.009100 0
-0.000651 -0.007455 0
-0.000154 -0.004327 0
0.000000 0.000025 0
0.000000 0.000001 0
-0.000285 0.005886 0
-0.000931 0.009299 0
-0.001759 0.010880 0
-0.002657 0.011410 0
-0.003568 0.011455 0
-0.004470 0.011301 0
-0.005355 0.011060 0
-0.006220 0.010767 0
-0.007062 0.010436 0
-0.007881 0.010068 0
-0.008675 0.009668 0
-0.009444 0.009234 0
-0.010186 0.008769 0
-0.010901 0.008271 0
-0.011588 0.007741 0
-0.012246 0.007177 0
-0.012873 0.006578 0
-0.013466 0.005943 0
-0.014023 0.005268 0
-0.014539 0.004553 0
-0.015010 0.003795 0
-0.015430 0.002995 0
-0.015791 0.002152 0
-0.016085 0.001268 0
-0.016304 0.000346 0
-0.016437 -0.000609 0
-0.016475 -0.001587 0
-0.016408 -0.002579 0
-0.016230 -0.003570 0
-0.015935 -0.004546 0
-0.015522 -0.005490 0
-0.014992 -0.006386 0
-0.014353 -0.007219 0
-0.013616 -0.007976 0
-0.012793 -0.008648 0
-0.011901 -0.009231 0
-0.010957 -0.009723 0
-0.009976 -0.010126 0
-0.008975 -0.010446 0
-0.007965 -0.010691 0
-0.006958 -0.010868 0
-0.005962 -0.010987 0
-0.004984 -0.011053 0
-0.004027 -0.011058 0
-0.003098 -0.010967 0
-0.002204 -0.010663 0
-0.001369 -0.009867 0
-0.000647 -0.008062 0
-0.000145 -0.004652 0
0.000000 0.000028 0
0.000000 0.000001 0
-0.000294 0.006359 0
-0.000965 0.010050 0
-0.001826 0.011759 0
-0.002759 0.012331 0
-0.003704 0.012378 0
-0.004640 0.012211 0
-0.005558 0.011950 0
-0.006454 0.011636 0
-0.007327 0.011281 0
-0.008176 0.010889 0
-0.009000 0.010463 0
-0.009798 0.010004 0
-0.010571 0.009513 0
-0.011318 0.008988 0