# vtk DataFile Version 2.0
generated by CFD-lab course output (written by Tobias Neckel) 
ASCII

DATASET STRUCTURED_GRID
DIMENSIONS  51 51 1 
POINTS 2601 float

0.000000 0.000000 0
0.020000 0.000000 0
0.040000 0.000000 0
0.060000 0.000000 0
0.080000 0.000000 0
0.100000 0.000000 0
0.120000 0.000000 0
0.140000 0.000000 0
0.160000 0.000000 0
0.180000 0.000000 0
0.200000 0.000000 0
0.220000 0.000000 0
0.240000 0.000000 0
0.260000 0.000000 0
0.280000 0.000000 0
0.300000 0.000000 0
0.320000 0.000000 0
0.340000 0.000000 0
0.360000 0.000000 0
0.380000 0.000000 0
0.400000 0.000000 0
0.420000 0.000000 0
0.440000 0.000000 0
0.460000 0.000000 0
0.480000 0.000000 0
0.500000 0.000000 0
0.520000 0.000000 0
0.540000 0.000000 0
0.560000 0.000000 0
0.580000 0.000000 0
0.600000 0.000000 0
0.620000 0.000000 0
0.640000 0.000000 0
0.660000 0.000000 0
0.680000 0.000000 0
0.700000 0.000000 0
0.720000 0.000000 0
0.740000 0.000000 0
0.760000 0.000000 0
0.780000 0.000000 0
0.800000 0.000000 0
0.820000 0.000000 0
0.840000 0.000000 0
0.860000 0.000000 0
0.880000 0.000000 0
0.900000 0.000000 0
0.920000 0.000000 0
0.940000 0.000000 0
0.960000 0.000000 0
0.980000 0.000000 0
1.000000 0.000000 0
0.000000 0.020000 0
0.020000 0.020000 0
0.040000 0.020000 0
0.060000 0.020000 0
0.080000 0.020000 0
0.100000 0.020000 0
0.120000 0.020000 0
0.140000 0.020000 0
0.160000 0.020000 0
0.180000 0.020000 0
0.200000 0.020000 0
0.220000 0.020000 0
0.240000 0.020000 0
0.260000 0.020000 0
0.280000 0.020000 0
0.300000 0.020000 0
0.320000 0.020000 0
0.340000 0.020000 0
0.360000 0.020000 0
0.380000 0.020000 0
0.400000 0.020000 0
0.420000 0.020000 0
0.440000 0.020000 0
0.460000 0.020000 0
0.480000 0.020000 0
0.500000 0.020000 0
0.520000 0.020000 0
0.540000 0.020000 0
0.560000 0.020000 0
0.580000 0.020000 0
0.600000 0.020000 0
0.620000 0.020000 0
0.640000 0.020000 0
0.660000 0.020000 0
0.680000 0.020000 0
0.700000 0.020000 0
0.720000 0.020000 0
0.740000 0.020000 0
0.760000 0.020000 0
0.780000 0.020000 0
0.800000 0.020000 0
0.820000 0.020000 0
0.840000 0.020000 0
0.860000 0.020000 0
0.880000 0.020000 0
0.900000 0.020000 0
0.920000 0.020000 0
0.940000 0.020000 0
0.960000 0.020000 0
0.980000 0.020000 0
1.000000 0.020000 0
0.000000 0.040000 0
0.020000 0.040000 0
0.040000 0.040000 0
0.060000 0.040000 0
0.080000 0.040000 0
0.100000 0.040000 0
0.120000 0.040000 0
0.140000 0.040000 0
0.160000 0.040000 0
0.180000 0.040000 0
0.200000 0.040000 0
0.220000 0.040000 0
0.240000 0.040000 0
0.260000 0.040000 0
0.280000 0.040000 0
0.300000 0.040000 0
0.320000 0.040000 0
0.340000 0.040000 0
0.360000 0.040000 0
0.380000 0.040000 0
0.400000 0.040000 0
0.420000 0.040000 0
0.440000 0.040000 0
0.460000 0.040000 0
0.480000 0.040000 0
0.500000 0.040000 0
0.520000 0.040000 0
0.540000 0.040000 0
0.560000 0.040000 0
0.580000 0.040000 0
0.600000 0.040000 0
0.620000 0.040000 0
0.640000 0.040000 0
0.660000 0.040000 0
0.680000 0.040000 0
0.700000 0.040000 0
0.720000 0.040000 0
0.740000 0.040000 0
0.760000 0.040000 0
0.780000 0.040000 0
0.800000 0.040000 0
0.820000 0.040000 0
0.840000 0.040000 0
0.860000 0.040000 0
0.880000 0.040000 0
0.900000 0.040000 0
0.920000 0.040000 0
0.940000 0.040000 0
0.960000 0.040000 0
0.980000 0.040000 0
1.000000 0.040000 0
0.000000 0.060000 0
0.020000 0.060000 0
0.040000 0.060000 0
0.060000 0.060000 0
0.080000 0.060000 0
0.100000 0.060000 0
0.120000 0.060000 0
0.140000 0.060000 0
0.160000 0.060000 0
0.180000 0.060000 0
0.200000 0.060000 0
0.220000 0.060000 0
0.240000 0.060000 0
0.260000 0.060000 0
0.280000 0.060000 0
0.300000 0.060000 0
0.320000 0.060000 0
0.340000 0.060000 0
0.360000 0.060000 0
0.380000 0.060000 0
0.400000 0.060000 0
0.420000 0.060000 0
0.440000 0.060000 0
0.460000 0.060000 0
0.480000 0.060000 0
0.500000 0.060000 0
0.520000 0.060000 0
0.540000 0.060000 0
0.560000 0.060000 0
0.580000 0.060000 0
0.600000 0.060000 0
0.620000 0.060000 0
0.640000 0.060000 0
0.660000 0.060000 0
0.680000 0.060000 0
0.700000 0.060000 0
0.720000 0.060000 0
0.740000 0.060000 0
0.760000 0.060000 0
0.780000 0.060000 0
0.800000 0.060000 0
0.820000 0.060000 0
0.840000 0.060000 0
0.860000 0.060000 0
0.880000 0.060000 0
0.900000 0.060000 0
0.920000 0.060000 0
0.940000 0.060000 0
0.960000 0.060000 0
0.980000 0.060000 0
1.000000 0.060000 0
0.000000 0.080000 0
0.020000 0.080000 0
0.040000 0.080000 0
0.060000 0.080000 0
0.080000 0.080000 0
0.100000 0.080000 0
0.120000 0.080000 0
0.140000 0.080000 0
0.160000 0.080000 0
0.180000 0.080000 0
0.200000 0.080000 0
0.220000 0.080000 0
0.240000 0.080000 0
0.260000 0.080000 0
0.280000 0.080000 0
0.300000 0.080000 0
0.320000 0.080000 0
0.340000 0.080000 0
0.360000 0.080000 0
0.380000 0.080000 0
0.400000 0.080000 0
0.420000 0.080000 0
0.440000 0.080000 0
0.460000 0.080000 0
0.480000 0.080000 0
0.500000 0.080000 0
0.520000 0.080000 0
0.540000 0.080000 0
0.560000 0.080000 0
0.580000 0.080000 0
0.600000 0.080000 0
0.620000 0.080000 0
0.640000 0.080000 0
0.660000 0.080000 0
0.680000 0.080000 0
0.700000 0.080000 0
0.720000 0.080000 0
0.740000 0.080000 0
0.760000 0.080000 0
0.780000 0.080000 0
0.800000 0.080000 0
0.820000 0.080000 0
0.840000 0.080000 0
0.860000 0.080000 0
0.880000 0.080000 0
0.900000 0.080000 0
0.920000 0.080000 0
0.940000 0.080000 0
0.960000 0.080000 0
0.980000 0.080000 0
1.000000 0.080000 0
0.000000 0.100000 0
0.020000 0.100000 0
0.040000 0.100000 0
0.060000 0.100000 0
0.080000 0.100000 0
0.100000 0.100000 0
0.120000 0.100000 0
0.140000 0.100000 0
0.160000 0.100000 0
0.180000 0.100000 0
0.200000 0.100000 0
0.220000 0.100000 0
0.240000 0.100000 0
0.260000 0.100000 0
0.280000 0.100000 0
0.300000 0.100000 0
0.320000 0.100000 0
0.340000 0.100000 0
0.360000 0.100000 0
0.380000 0.100000 0
0.400000 0.100000 0
0.420000 0.100000 0
0.440000 0.100000 0
0.460000 0.100000 0
0.480000 0.100000 0
0.500000 0.100000 0
0.520000 0.100000 0
0.540000 0.100000 0
0.560000 0.100000 0
0.580000 0.100000 0
0.600000 0.100000 0
0.620000 0.100000 0
0.640000 0.100000 0
0.660000 0.100000 0
0.680000 0.100000 0
0.700000 0.100000 0
0.720000 0.100000 0
0.740000 0.100000 0
0.760000 0.100000 0
0.780000 0.100000 0
0.800000 0.100000 0
0.820000 0.100000 0
0.840000 0.100000 0
0.860000 0.100000 0
0.880000 0.100000 0
0.900000 0.100000 0
0.920000 0.100000 0
0.940000 0.100000 0
0.960000 0.100000 0
0.980000 0.100000 0
1.000000 0.100000 0
0.000000 0.120000 0
0.020000 0.120000 0
0.040000 0.120000 0
0.060000 0.120000 0
0.080000 0.120000 0
0.100000 0.120000 0
0.120000 0.120000 0
0.140000 0.120000 0
0.160000 0.120000 0
0.180000 0.120000 0
0.200000 0.120000 0
0.220000 0.120000 0
0.240000 0.120000 0
0.260000 0.120000 0
0.280000 0.120000 0
0.300000 0.120000 0
0.320000 0.120000 0
0.340000 0.120000 0
0.360000 0.120000 0
0.380000 0.120000 0
0.400000 0.120000 0
0.420000 0.120000 0
0.440000 0.120000 0
0.460000 0.120000 0
0.480000 0.120000 0
0.500000 0.120000 0
0.520000 0.120000 0
0.540000 0.120000 0
0.560000 0.120000 0
0.580000 0.120000 0
0.600000 0.120000 0
0.620000 0.120000 0
0.640000 0.120000 0
0.660000 0.120000 0
0.680000 0.120000 0
0.700000 0.120000 0
0.720000 0.120000 0
0.740000 0.120000 0
0.760000 0.120000 0
0.780000 0.120000 0
0.800000 0.120000 0
0.820000 0.120000 0
0.840000 0.120000 0
0.860000 0.120000 0
0.880000 0.120000 0
0.900000 0.120000 0
0.920000 0.120000 0
0.940000 0.120000 0
0.960000 0.120000 0
0.980000 0.120000 0
1.000000 0.120000 0
0.000000 0.140000 0
0.020000 0.140000 0
0.040000 0.140000 0
0.060000 0.140000 0
0.080000 0.140000 0
0.100000 0.140000 0
0.120000 0.140000 0
0.140000 0.140000 0
0.160000 0.140000 0
0.180000 0.140000 0
0.200000 0.140000 0
0.220000 0.140000 0
0.240000 0.140000 0
0.260000 0.140000 0
0.280000 0.140000 0
0.300000 0.140000 0
0.320000 0.140000 0
0.340000 0.140000 0
0.360000 0.140000 0
0.380000 0.140000 0
0.400000 0.140000 0
0.420000 0.140000 0
0.440000 0.140000 0
0.460000 0.140000 0
0.480000 0.140000 0
0.500000 0.140000 0
0.520000 0.140000 0
0.540000 0.140000 0
0.560000 0.140000 0
0.580000 0.140000 0
0.600000 0.140000 0
0.620000 0.140000 0
0.640000 0.140000 0
0.660000 0.140000 0
0.680000 0.140000 0
0.700000 0.140000 0
0.720000 0.140000 0
0.740000 0.140000 0
0.760000 0.140000 0
0.780000 0.140000 0
0.800000 0.140000 0
0.820000 0.140000 0
0.840000 0.140000 0
0.860000 0.140000 0
0.880000 0.140000 0
0.900000 0.140000 0
0.920000 0.140000 0
0.940000 0.140000 0
0.960000 0.140000 0
0.980000 0.140000 0
1.000000 0.140000 0
0.000000 0.160000 0
0.020000 0.160000 0
0.040000 0.160000 0
0.060000 0.160000 0
0.080000 0.160000 0
0.100000 0.160000 0
0.120000 0.160000 0
0.140000 0.160000 0
0.160000 0.160000 0
0.180000 0.160000 0
0.200000 0.160000 0
0.220000 0.160000 0
0.240000 0.160000 0
0.260000 0.160000 0
0.280000 0.160000 0
0.300000 0.160000 0
0.320000 0.160000 0
0.340000 0.160000 0
0.360000 0.160000 0
0.380000 0.160000 0
0.400000 0.160000 0
0.420000 0.160000 0
0.440000 0.160000 0
0.460000 0.160000 0
0.480000 0.160000 0
0.500000 0.160000 0
0.520000 0.160000 0
0.540000 0.160000 0
0.560000 0.160000 0
0.580000 0.160000 0
0.600000 0.160000 0
0.620000 0.160000 0
0.640000 0.160000 0
0.660000 0.160000 0
0.680000 0.160000 0
0.700000 0.160000 0
0.720000 0.160000 0
0.740000 0.160000 0
0.760000 0.160000 0
0.780000 0.160000 0
0.800000 0.160000 0
0.820000 0.160000 0
0.840000 0.160000 0
0.860000 0.160000 0
0.880000 0.160000 0
0.900000 0.160000 0
0.920000 0.160000 0
0.940000 0.160000 0
0.960000 0.160000 0
0.980000 0.160000 0
1.000000 0.160000 0
0.000000 0.180000 0
0.020000 0.180000 0
0.040000 0.180000 0
0.060000 0.180000 0
0.080000 0.180000 0
0.100000 0.180000 0
0.120000 0.180000 0
0.140000 0.180000 0
0.160000 0.180000 0
0.180000 0.180000 0
0.200000 0.180000 0
0.220000 0.180000 0
0.240000 0.180000 0
0.260000 0.180000 0
0.280000 0.180000 0
0.300000 0.180000 0
0.320000 0.180000 0
0.340000 0.180000 0
0.360000 0.180000 0
0.380000 0.180000 0
0.400000 0.180000 0
0.420000 0.180000 0
0.440000 0.180000 0
0.460000 0.180000 0
0.480000 0.180000 0
0.500000 0.180000 0
0.520000 0.180000 0
0.540000 0.180000 0
0.560000 0.180000 0
0.580000 0.180000 0
0.600000 0.180000 0
0.620000 0.180000 0
[...]
POINT_DATA 2601 

VECTORS velocity float
0.000000 0.000000 0
-0.000000 0.000000 0
-0.000002 0.000000 0
-0.000005 0.000000 0
-0.000008 0.000000 0
-0.000012 0.000000 0
-0.000018 0.000000 0
-0.000024 0.000000 0
-0.000030 0.000000 0
-0.000033 0.000000 0
-0.000033 0.000000 0
-0.000029 0.000000 0
-0.000023 0.000000 0
-0.000013 0.000000 0
-0.000002 0.000000 0
0.000007 0.000000 0
0.000012 0.000000 0
0.000014 0.000000 0
0.000014 0.000000 0
0.000014 0.000000 0
0.000012 0.000000 0
0.000010 0.000000 0
0.000008 0.000000 0
0.000006 0.000000 0
0.000005 0.000000 0
0.000003 0.000000 0
0.000002 0.000000 0
0.000002 0.000000 0
0.000001 0.000000 0
0.000001 0.000000 0
0.000000 0.000000 0
0.000000 0.000000 0
0.000000 0.000000 0
0.000000 0.000000 0
0.000000 0.000000 0
0.000001 0.000000 0
0.000001 0.000000 0
0.000001 0.000000 0
0.000001 0.000000 0
0.000001 0.000000 0
0.000001 0.000000 0
0.000001 0.000000 0
0.000001 0.000000 0
0.000001 0.000000 0
0.000001 0.000000 0
0.000001 0.000000 0
0.000001 0.000000 0
0.000000 0.000000 0
0.000000 0.000000 0
0.000000 0.000000 0
0.000000 0.000000 0
0.000000 0.000000 0
-0.009870 0.008653 0
-0.024633 0.008992 0
-0.035036 0.004955 0
-0.040247 0.000973 0
-0.040797 -0.002848 0
-0.036691 -0.007179 0
-0.027596 -0.012091 0
-0.013279 -0.016870 0
0.006136 -0.020371 0
0.030071 -0.022229 0
0.056828 -0.021900 0
0.084175 -0.018917 0
0.109756 -0.013797 0
0.130747 -0.007451 0
0.144760 -0.001353 0
0.150474 0.003476 0
0.148033 0.007039 0
0.139356 0.009748 0
0.126066 0.011895 0
0.109460 0.013545 0
0.090730 0.014588 0
0.071100 0.014818 0
0.051838 0.014061 0
0.034162 0.012294 0
0.019109 0.009710 0
0.007403 0.006688 0
-0.000639 0.003753 0
-0.005158 0.001578 0
-0.007175 0.000406 0
-0.007872 -0.000095 0
-0.007962 -0.000251 0
-0.007805 -0.000270 0
-0.007555 -0.000251 0
-0.007264 -0.000236 0
-0.006936 -0.000238 0
-0.006560 -0.000257 0
-0.006125 -0.000287 0
-0.005625 -0.000321 0
-0.005064 -0.000353 0
-0.004452 -0.000378 0
-0.003806 -0.000392 0
-0.003150 -0.000393 0
-0.002505 -0.000380 0
-0.001897 -0.000352 0
-0.001345 -0.000312 0
-0.000869 -0.000261 0
-0.000485 -0.000198 0
-0.000205 -0.000123 0
-0.000043 -0.000042 0
0.000000 0.000000 0
0.000000 0.000001 0
-0.014358 0.024632 0
-0.034482 0.025166 0
-0.049683 0.015614 0
-0.058784 0.005760 0
-0.062327 -0.003557 0
-0.060779 -0.013201 0
-0.054414 -0.023414 0
-0.043353 -0.033734 0
-0.027373 -0.043351 0
-0.006074 -0.050693 0
0.020198 -0.054105 0
0.051191 -0.052929 0
0.084973 -0.046574 0
0.118849 -0.035006 0
0.148851 -0.019728 0
0.170600 -0.003273 0
0.180704 0.011117 0
0.178139 0.021966 0
0.166019 0.029895 0
0.147181 0.035336 0
0.124241 0.038360 0
0.099555 0.038892 0
0.075102 0.036938 0
0.052419 0.032729 0
0.032614 0.026759 0
0.016415 0.019748 0
0.004212 0.012561 0
-0.003958 0.006536 0
-0.008431 0.002714 0
-0.010590 0.000787 0
-0.011503 -0.000067 0
-0.011768 -0.000407 0
-0.011694 -0.000541 0
-0.011422 -0.000619 0
-0.011002 -0.000704 0
-0.010448 -0.000811 0
-0.009765 -0.000935 0
-0.008959 -0.001061 0
-0.008045 -0.001173 0
-0.007052 -0.001257 0
-0.006011 -0.001302 0
-0.004962 -0.001301 0
-0.003944 -0.001253 0
-0.002993 -0.001160 0
-0.002141 -0.001027 0
-0.001411 -0.000860 0
-0.000821 -0.000664 0
-0.000384 -0.000442 0
-0.000106 -0.000205 0
0.000000 0.000000 0
0.000000 0.000003 0
-0.015186 0.043135 0
-0.037113 0.044317 0
-0.054535 0.029256 0
-0.065964 0.013616 0
-0.072203 -0.000853 0
-0.073866 -0.015093 0
-0.071583 -0.029518 0
-0.065611 -0.043912 0
-0.056018 -0.057651 0
-0.042715 -0.069800 0
-0.024945 -0.079165 0
-0.001967 -0.083693 0
0.026274 -0.081456 0
0.059351 -0.071328 0
0.094442 -0.053104 0
0.127766 -0.028378 0
0.153289 -0.000500 0
0.165308 0.024433 0
0.162949 0.042852 0
0.150096 0.055323 0
0.130601 0.062215 0
0.107855 0.063958 0
0.084463 0.061196 0
0.062219 0.054782 0
0.042265 0.045714 0
0.025269 0.035090 0
0.011576 0.024126 0
0.001241 0.014220 0
-0.005612 0.007038 0
-0.009427 0.002978 0
-0.011421 0.000927 0
-0.012358 -0.000079 0
-0.012674 -0.000598 0
-0.012593 -0.000929 0
-0.012229 -0.001211 0
-0.011635 -0.001493 0
-0.010842 -0.001776 0
-0.009881 -0.002040 0
-0.008790 -0.002260 0
-0.007616 -0.002413 0
-0.006408 -0.002482 0
-0.005219 -0.002460 0
-0.004093 -0.002348 0
-0.003069 -0.002156 0
-0.002175 -0.001895 0
-0.001429 -0.001580 0
-0.000838 -0.001225 0
-0.000402 -0.000838 0
-0.000119 -0.000426 0
0.000000 0.000000 0
0.000000 0.000004 0
-0.014037 0.061744 0
-0.035945 0.064514 0
-0.054403 0.044465 0
-0.067195 0.023428 0
-0.075263 0.004345 0
-0.079388 -0.013822 0
-0.080236 -0.031669 0
-0.078185 -0.049299 0
-0.073346 -0.066248 0
-0.065690 -0.081766 0
-0.054976 -0.094853 0
-0.040840 -0.104148 0
-0.022199 -0.107893 0
0.001677 -0.103174 0
0.031028 -0.088143 0
0.064706 -0.062121 0
0.097421 -0.026425 0
0.123643 0.012306 0
0.133541 0.045107 0
0.130619 0.067684 0
0.119219 0.080601 0
0.103058 0.085029 0
0.084856 0.082573 0
0.066485 0.074926 0
0.049151 0.063709 0
0.033569 0.050438 0
0.020141 0.036590 0
0.009090 0.023723 0
0.000585 0.013381 0
-0.005030 0.006596 0
-0.008280 0.002865 0
-0.010026 0.000847 0
-0.010850 -0.000306 0
-0.011052 -0.001064 0
-0.010826 -0.001662 0
-0.010280 -0.002198 0
-0.009484 -0.002689 0
-0.008501 -0.003113 0
-0.007395 -0.003438 0
-0.006232 -0.003639 0
-0.005078 -0.003698 0
-0.003987 -0.003616 0
-0.003003 -0.003402 0
-0.002155 -0.003077 0
-0.001457 -0.002667 0
-0.000914 -0.002197 0
-0.000514 -0.001691 0
-0.000240 -0.001161 0
-0.000071 -0.000607 0
0.000000 0.000001 0
0.000000 0.000005 0
-0.011820 0.079079 0
-0.032561 0.084683 0
-0.051430 0.060506 0
-0.065101 0.034476 0
-0.074432 0.011339 0
-0.080445 -0.010121 0
-0.083719 -0.030721 0
-0.084830 -0.050802 0
-0.083957 -0.070146 0
-0.081124 -0.088171 0
-0.076177 -0.104016 0
-0.068813 -0.116471 0
-0.058511 -0.123973 0
-0.044583 -0.124556 0
-0.025377 -0.116133 0
-0.000451 -0.094770 0
0.029969 -0.059438 0
0.062991 -0.011687 0
0.086892 0.035877 0
0.094904 0.069643 0
0.094084 0.089775 0
0.087648 0.098321 0
0.077664 0.097769 0
0.065768 0.090488 0
0.053180 0.078630 0
0.040738 0.064100 0
0.029009 0.048606 0
0.018419 0.033776 0
0.009410 0.021158 0
0.002437 0.011843 0
-0.002197 0.005923 0
-0.004974 0.002492 0
-0.006458 0.000428 0
-0.007065 -0.000953 0
-0.007074 -0.001983 0
-0.006678 -0.002836 0
-0.006002 -0.003556 0
-0.005147 -0.004130 0
-0.004205 -0.004528 0
-0.003257 -0.004729 0
-0.002371 -0.004727 0
-0.001598 -0.004535 0
-0.000968 -0.004181 0
-0.000496 -0.003701 0
-0.000180 -0.003135 0
-0.000002 -0.002523 0
0.000063 -0.001899 0
0.000056 -0.001281 0
0.000021 -0.000666 0
0.000000 0.000001 0
0.000000 0.000006 0
-0.009099 0.094304 0
-0.027842 0.104125 0
-0.046711 0.077005 0
-0.061062 0.046430 0
-0.071360 0.019688 0
-0.078807 -0.004535 0
-0.084018 -0.027283 0
-0.087706 -0.049062 0
-0.090166 -0.069954 0
-0.091524 -0.089547 0
-0.091745 -0.107166 0
-0.090594 -0.121815 0
-0.087581 -0.132123 0
-0.081981 -0.136308 0
-0.072774 -0.132274 0
-0.058974 -0.117466 0
-0.037851 -0.089867 0
-0.009719 -0.044617 0
0.023877 0.013193 0
0.048096 0.060492 0
0.059225 0.087858 0
0.063952 0.101449 0
0.063814 0.104453 0
0.060087 0.099410 0
0.053852 0.088739 0
0.045993 0.074609 0
0.037261 0.058909 0
0.028295 0.043322 0
0.019773 0.029363 0
0.012393 0.018203 0
0.006695 0.010277 0
0.002816 0.005109 0
0.000468 0.001784 0
-0.000774 -0.000449 0
-0.001221 -0.002049 0
-0.001161 -0.003270 0
-0.000796 -0.004219 0
-0.000275 -0.004909 0
0.000288 -0.005328 0
0.000807 -0.005473 0
0.001221 -0.005358 0
0.001492 -0.005019 0
0.001606 -0.004504 0
0.001567 -0.003866 0
0.001392 -0.003161 0
0.001111 -0.002440 0
0.000766 -0.001749 0
0.000414 -0.001119 0
0.000130 -0.000551 0
0.000000 0.000001 0
0.000000 0.000007 0
-0.006282 0.106921 0
-0.022369 0.122294 0
-0.040846 0.093725 0
-0.055782 0.059125 0
-0.066871 0.029085 0
-0.075441 0.002537 0
-0.082296 -0.021822 0
-0.088097 -0.044655 0
-0.093323 -0.066328 0
-0.098202 -0.086592 0
-0.102831 -0.104947 0
-0.107117 -0.120635 0
-0.110714 -0.132586 0
-0.112936 -0.139363 0
-0.112675 -0.139141 0
-0.108457 -0.129695 0
-0.098214 -0.108692 0
-0.080244 -0.073414 0
-0.049474 -0.021939 0
-0.010684 0.034295 0
0.016706 0.073920 0
0.034670 0.093732 0
0.044676 0.101633 0
0.049712 0.100450 0
0.050757 0.092724 0
0.048559 0.080691 0
0.043956 0.066304 0
0.037723 0.051265 0
0.030735 0.037060 0
0.023844 0.024920 0
0.017798 0.015499 0
0.013100 0.008720 0
0.009820 0.004018 0
0.007730 0.000736 0
0.006528 -0.001595 0
0.005953 -0.003261 0
0.005720 -0.004442 0
0.005638 -0.005215 0
0.005576 -0.005610 0
0.005451 -0.005661 0
0.005215 -0.005411 0
0.004846 -0.004920 0
0.004345 -0.004256 0
0.003727 -0.003487 0
0.003017 -0.002679 0
0.002252 -0.001897 0
0.001480 -0.001202 0
0.000774 -0.000645 0
0.000236 -0.000251 0
0.000000 0.000001 0
0.000000 0.000008 0
-0.003673 0.116673 0
-0.016577 0.138688 0
-0.034197 0.110419 0
-0.049640 0.072455 0
-0.061449 0.039347 0
-0.070990 0.010890 0
-0.079329 -0.014628 0
-0.086898 -0.038036 0
-0.094441 -0.059849 0
-0.102257 -0.080039 0
-0.110520 -0.098251 0
-0.119255 -0.113931 0
-0.128266 -0.126305 0
-0.137037 -0.134347 0
-0.144590 -0.136753 0
-0.149345 -0.131927 0
-0.148951 -0.118081 0
-0.140396 -0.093358 0
-0.119527 -0.056366 0
-0.082293 -0.005688 0
-0.037007 0.042503 0
-0.002338 0.073479 0
0.020921 0.089412 0
0.035275 0.093329 0
0.043885 0.089892 0
0.047904 0.081409 0
0.048273 0.069745 0
0.045716 0.056544 0
0.041269 0.043242 0
0.035818 0.031141 0
0.030195 0.021020 0
0.025164 0.013087 0
0.021133 0.007155 0
0.018125 0.002843 0
0.015929 -0.000272 0
0.014336 -0.002462 0
0.013147 -0.003904 0
0.012150 -0.004765 0
0.011211 -0.005142 0
0.010249 -0.005112 0
0.009224 -0.004752 0
0.008126 -0.004148 0
0.006962 -0.003384 0
0.005751 -0.002538 0
0.004518 -0.001686 0
0.003293 -0.000902 0
0.002126 -0.000271 0
0.001095 0.000126 0
0.000328 0.000222 0
0.000000 0.000001 0
0.000000 0.000008 0
-0.001492 0.123498 0
-0.010842 0.152818 0
-0.027035 0.126789 0
-0.042875 0.086377 0
-0.055425 0.050434 0
-0.065855 0.020416 0
-0.075464 -0.005914 0
-0.084655 -0.029543 0
-0.094202 -0.050970 0
-0.104498 -0.070514 0
-0.115736 -0.087950 0
-0.127972 -0.102889 0
-0.141076 -0.114804 0
-0.154648 -0.123039 0
-0.167895 -0.126833 0
-0.179454 -0.125333 0
-0.187212 -0.117641 0
-0.188198 -0.102839 0
-0.178569 -0.080042 0
-0.154166 -0.048225 0
-0.110277 -0.006035 0
-0.060125 0.035804 0
-0.015922 0.064020 0
0.014143 0.077486 0
0.032968 0.080095 0
0.043791 0.076303 0
0.049689 0.068492 0
0.051436 0.058268 0
0.050381 0.046958 0
0.047222 0.035994 0
0.042748 0.026154 0
0.037963 0.017783 0
0.033528 0.011057 0
0.029674 0.005939 0
0.026379 0.002193 0
0.023525 -0.000479 0
0.021040 -0.002256 0
0.018831 -0.003278 0
0.016789 -0.003708 0
0.014834 -0.003674 0
0.012928 -0.003289 0
0.011062 -0.002659 0
0.009240 -0.001881 0
0.007471 -0.001042 0
0.005767 -0.000221 0
0.004151 0.000495 0
0.002658 0.000996 0
0.001364 0.001152 0
0.000408 0.000845 0
0.000000 0.000001 0
0.000000 0.000008 0
0.000127 0.127514 0
-0.005499 0.164232 0
-0.019614 0.142452 0
-0.035625 0.100844 0
-0.048936 0.062327 0
-0.060140 0.030929 0
-0.070803 0.004172 0
-0.081671 -0.019298 0
-0.093006 -0.040007 0
-0.105421 -0.058506 0
-0.119090 -0.074777 0
-0.134025 -0.088592 0
-0.150058 -0.099629 0
-0.166797 -0.107528 0
-0.183548 -0.111947 0
-0.199227 -0.112611 0
-0.212261 -0.109337 0
-0.220523 -0.102001 0
-0.221318 -0.090399 0
-0.211476 -0.073981 0
-0.187333 -0.051537 0
-0.144813 -0.020875 0
-0.091883 0.015143 0
-0.039005 0.044438 0
0.003077 0.060245 0
0.030710 0.064689 0
0.045912 0.062100 0
0.053338 0.055852 0
0.056748 0.047455 0
0.056615 0.038774 0
0.053815 0.030279 0
0.049847 0.022307 0
0.045462 0.015445 0
0.040969 0.009992 0
0.036568 0.005877 0
0.032429 0.002878 0
0.028592 0.000790 0
0.025065 -0.000515 0
0.021807 -0.001145 0
0.018784 -0.001250 0
0.015979 -0.000981 0
0.013375 -0.000460 0
0.010959 0.000207 0
0.008718 0.000934 0
0.006648 0.001634 0
0.004750 0.002207 0
0.003039 0.002516 0
0.001570 0.002376 0
0.000476 0.001587 0
0.000000 0.000001 0
0.000000 0.000008 0
0.001292 0.128997 0
-0.000879 0.172560 0
-0.012217 0.156915 0
-0.028005 0.115699 0
-0.042076 0.074949 0
-0.053992 0.042283 0
-0.065575 0.015617 0
-0.077938 -0.007340 0
-0.091004 -0.027221 0
-0.105248 -0.044429 0
-0.120882 -0.059346 0
-0.137844 -0.071922 0
-0.155884 -0.082033 0
-0.174547 -0.089550 0
-0.193169 -0.094402 0
-0.210864 -0.096620 0
-0.226540 -0.096344 0
-0.238934 -0.093781 0
-0.246624 -0.089090 0
-0.247986 -0.082209 0
-0.240993 -0.072698 0
-0.222899 -0.059647 0
-0.189731 -0.041788 0
-0.142024 -0.017474 0
-0.088495 0.010380 0
-0.037084 0.033467 0
0.004615 0.045864 0
0.033746 0.047432 0
0.049942 0.043681 0
0.056990 0.038927 0
0.058002 0.032922 0
0.056476 0.026136 0
0.053282 0.019935 0
0.048836 0.014834 0
0.043754 0.010733 0
0.038686 0.007497 0
0.033866 0.005108 0
0.029325 0.003507 0
0.025093 0.002572 0
0.021212 0.002154 0
0.017710 0.002120 0
0.014568 0.002362 0
0.011751 0.002776 0
0.009231 0.003268 0
0.006982 0.003747 0
0.004979 0.004104 0
0.003207 0.004176 0
0.001688 0.003715 0
0.000532 0.002415 0
0.000000 0.000001 0
0.000000 0.000008 0
0.002190 0.128393 0
0.002784 0.177742 0
-0.005183 0.169578 0
-0.020176 0.130702 0
-0.034961 0.088314 0
-0.047601 0.054428 0
-0.059891 0.028118 0
-0.073280 0.006131 0
-0.088092 -0.012697 0
-0.103983 -0.028628 0
-0.121179 -0.042181 0
-0.139592 -0.053590 0
-0.158916 -0.062926 0
-0.178652 -0.070243 0
-0.198166 -0.075630 0
-0.216721 -0.079239 0
-0.233531 -0.081266 0
-0.247829 -0.081916 0
-0.258914 -0.081347 0
-0.266123 -0.079612 0
-0.268714 -0.076624 0
-0.265669 -0.072138 0
-0.255464 -0.065732 0
-0.235970 -0.056797 0
-0.204202 -0.044695 0
-0.161168 -0.028421 0
-0.112478 -0.008730 0
-0.065067 0.010524 0
-0.024974 0.024211 0
0.006396 0.030713 0
0.028187 0.030794 0
0.039558 0.027028 0
0.043829 0.023084 0
0.043529 0.019520 0
0.040664 0.016027 0
0.036877 0.012766 0
0.032696 0.010152 0
0.028389 0.008259 0
0.024185 0.006968 0
0.020267 0.006132 0
0.016754 0.005664 0
0.013639 0.005499 0
0.010894 0.005545 0
0.008493 0.005704 0
0.006406 0.005887 0
0.004592 0.005982 0
0.003011 0.005807 0
0.001644 0.005051 0
0.000556 0.003275 0
0.000000 0.000001 0
0.000000 0.000008 0
0.002854 0.126212 0
0.005478 0.179933 0
0.001094 0.179875 0
-0.012357 0.145476 0
-0.027688 0.102374 0
-0.041099 0.067213 0
-0.053925 0.041296 0
-0.067933 0.020861 0
-0.083848 0.003482 0
-0.101303 -0.011343 0
-0.119856 -0.023737 0
-0.139264 -0.034184 0
-0.159325 -0.042973 0
-0.179551 -0.050300 0
-0.199398 -0.056333 0
-0.218291 -0.061255 0
-0.235654 -0.065236 0
-0.250969 -0.068398 0
-0.263793 -0.070796 0
-0.273766 -0.072409 0
-0.280580 -0.073153 0
-0.283924 -0.072897 0
-0.283418 -0.071486 0
-0.278516 -0.068735 0
-0.268398 -0.064421 0
-0.252017 -0.058256 0
-0.227631 -0.050237 0
-0.194961 -0.040072 0
-0.156202 -0.027781 0
-0.116192 -0.014234 0
-0.078539 -0.000240 0
-0.047067 0.010495 0
-0.022642 0.015964 0
-0.004882 0.017999 0
0.006650 0.017384 0
0.012582 0.015465 0
0.014818 0.013597 0
0.014810 0.012018 0
0.013636 0.010694 0
0.011957 0.009585 0
0.010184 0.008748 0
0.008446 0.008221 0
0.006826 0.007922 0
0.005377 0.007757 0
0.004123 0.007648 0
0.003047 0.007499 0
0.002107 0.007124 0
0.001255 0.006171 0
0.000487 0.004059 0
0.000000 0.000001 0
0.000000 0.000009 0
0.003301 0.122915 0
0.007356 0.179502 0
0.006134 0.187413 0
-0.004771 0.159484 0
-0.020353 0.117056 0
-0.034627 0.080665 0
-0.048016 0.054952 0
-0.062415 0.036054 0
-0.078650 0.020673 0
-0.096815 0.007380 0
-0.116305 -0.004220 0
-0.136610 -0.014120 0
-0.157135 -0.022639 0
-0.177493 -0.030170 0
-0.197342 -0.036889 0
-0.216298 -0.042982 0
-0.233960 -0.048588 0
-0.249984 -0.053778 0
-0.264038 -0.058549 0
-0.275824 -0.062825 0
-0.285070 -0.066466 0
-0.291536 -0.069300 0
-0.295020 -0.071140 0
-0.295359 -0.071817 0
-0.292400 -0.071194 0
-0.285970 -0.069188 0
-0.275798 -0.065785 0
-0.261807 -0.060904 0
-0.243467 -0.054559 0
-0.220638 -0.046949 0
-0.193483 -0.038330 0
-0.162483 -0.028869 0
-0.131331 -0.019101 0
-0.102232 -0.009772 0
-0.076691 -0.001437 0
-0.055782 0.004598 0
-0.039440 0.007923 0
-0.027133 0.009441 0
-0.018228 0.009822 0
-0.012089 0.009584 0
-0.008111 0.009174 0
-0.005492 0.008857 0
-0.003708 0.008614 0
-0.002437 0.008407 0
-0.001477 0.008217 0
-0.000736 0.007998 0
-0.000182 0.007599 0
0.000148 0.006671 0
0.000192 0.004529 0
0.000000 0.000000 0
0.000000 0.000009 0
0.003569 0.118856 0
0.008576 0.177100 0
0.009735 0.192002 0
0.002165 0.171964 0
-0.013061 0.132230 0
-0.028220 0.094876 0
-0.042278 0.069084 0
-0.057012 0.051494 0
-0.073354 0.037882 0
-0.091341 0.026312 0
-0.110753 0.016059 0
-0.131098 0.006646 0
-0.151733 -0.002089 0
-0.172251 -0.010092 0
-0.192162 -0.017528 0
-0.211091 -0.024638 0
-0.228865 -0.031550 0
-0.245347 -0.038320 0
-0.260305 -0.044955 0
-0.273503 -0.051377 0
-0.284659 -0.057441 0
-0.293491 -0.062946 0
-0.299726 -0.067663 0
-0.303133 -0.071356 0
-0.303543 -0.073810 0
-0.300873 -0.074858 0
-0.295140 -0.074400 0
-0.286472 -0.072403 0
-0.274948 -0.068950 0
-0.260747 -0.064218 0
-0.244073 -0.058395 0
-0.225188 -0.051657 0
-0.204207 -0.044287 0
-0.181590 -0.036641 0
-0.157853 -0.029066 0
-0.133721 -0.021785 0
-0.110802 -0.015052 0
-0.090026 -0.009194 0
-0.071903 -0.004349 0
-0.056544 -0.000532 0
-0.043836 0.002152 0
-0.033440 0.003819 0
-0.024985 0.004866 0
-0.018147 0.005526 0
-0.012655 0.005947 0
-0.008272 0.006204 0
-0.004819 0.006239 0
-0.002210 0.005797 0
-0.000536 0.004207 0
0.000000 -0.000001 0
0.000000 0.000009 0
0.003690 0.114339 0
0.009259 0.173336 0
0.012112 0.193824 0
0.007766 0.182280 0
-0.005922 0.147440 0
-0.021843 0.109882 0
-0.036659 0.083744 0
-0.051711 0.067130 0
-0.068046 0.055002 0
-0.085717 0.044780 0
-0.104433 0.035538 0
-0.123854 0.026860 0
-0.143762 0.018514 0
-0.163764 0.010259 0
-0.183429 0.001952 0
-0.202429 -0.006279 0
-0.220470 -0.014332 0
-0.237270 -0.022338 0
-0.252786 -0.030393 0
-0.266958 -0.038470 0
-0.279558 -0.046478 0
-0.290304 -0.054233 0
-0.298876 -0.061498 0
-0.304951 -0.067999 0
-0.308241 -0.073453 0
-0.308525 -0.077590 0
-0.305684 -0.080186 0
-0.299725 -0.081096 0
-0.290777 -0.080284 0
-0.279124 -0.077824 0
-0.265150 -0.073889 0
-0.249278 -0.068736 0
-0.231878 -0.062700 0
-0.213355 -0.056125 0
-0.194074 -0.049305 0
-0.174412 -0.042453 0
-0.154615 -0.035771 0
-0.135014 -0.029459 0
-0.115946 -0.023661 0
-0.097729 -0.018483 0
-0.080635 -0.013929 0
-0.065070 -0.009994 0
-0.051185 -0.006680 0
-0.038995 -0.003923 0
-0.028451 -0.001657 0
-0.019458 0.000162 0
-0.011951 0.001537 0
-0.005968 0.002388 0
-0.001769 0.002319 0
0.000000 -0.000003 0
0.000000 0.000009 0
0.003694 0.109597 0
0.009524 0.168678 0
0.013506 0.193494 0
0.011703 0.189998 0
0.000772 0.161840 0
-0.015516 0.125613 0
-0.031065 0.098952 0
-0.046399 0.082882 0
-0.062595 0.071888 0
-0.079806 0.062700 0
-0.097776 0.054196 0
-0.116222 0.045975 0
-0.134911 0.037821 0
-0.153630 0.029575 0
-0.172280 0.021137 0
-0.190711 0.012405 0
-0.208617 0.003292 0
-0.225685 -0.006004 0
-0.241681 -0.015267 0
-0.256402 -0.024605 0
-0.269903 -0.034094 0
-0.282004 -0.043628 0
-0.292409 -0.053016 0
-0.300755 -0.061990 0
-0.306673 -0.070235 0
-0.309817 -0.077414 0
-0.309906 -0.083199 0
-0.306764 -0.087310 0
-0.300355 -0.089552 0
-0.290813 -0.089845 0
-0.278433 -0.088241 0
-0.263643 -0.084929 0
-0.246958 -0.080210 0
-0.228944 -0.074446 0
-0.210144 -0.068009 0
-0.191017 -0.061244 0
-0.171892 -0.054451 0
-0.153031 -0.047863 0
-0.134623 -0.041634 0
-0.116826 -0.035843 0
-0.099776 -0.030508 0
-0.083555 -0.025631 0
-0.068263 -0.021208 0
-0.053997 -0.017208 0
-0.040846 -0.013590 0
-0.028923 -0.010297 0
-0.018397 -0.007250 0
-0.009576 -0.004385 0
-0.003029 -0.001761 0
0.000000 -0.000005 0
0.000000 0.000009 0
0.003607 0.104815 0
0.009471 0.163523 0
0.014125 0.191646 0
0.014215 0.195014 0
0.006369 0.174659 0
-0.009294 0.141719 0
-0.025414 0.114627 0
-0.040977 0.098660 0
-0.056926 0.088410 0
-0.073560 0.079961 0
-0.090705 0.071954 0
-0.108127 0.063996 0
-0.125640 0.055922 0
-0.143108 0.047628 0
-0.160444 0.039033 0
-0.177564 0.030059 0
-0.194434 0.020642 0
-0.211005 0.010727 0
-0.226988 0.000324 0
-0.242079 -0.010249 0
-0.256049 -0.020875 0
-0.268895 -0.031726 0
-0.280510 -0.042747 0
-0.290576 -0.053735 0
-0.298701 -0.064391 0
-0.304469 -0.074356 0
-0.307479 -0.083239 0