# vtk DataFile Version 2.0
generated by CFD-lab course output (written by Tobias Neckel) 
ASCII

DATASET STRUCTURED_GRID
DIMENSIONS  51 51 1 
POINTS 2601 float

0.000000 0.000000 0
0.020000 0.000000 0
0.040000 0.000000 0
0.060000 0.000000 0
0.080000 0.000000 0
0.100000 0.000000 0
0.120000 0.000000 0
0.140000 0.000000 0
0.160000 0.000000 0
0.180000 0.000000 0
0.200000 0.000000 0
0.220000 0.000000 0
0.240000 0.000000 0
0.260000 0.000000 0
0.280000 0.000000 0
0.300000 0.000000 0
0.320000 0.000000 0
0.340000 0.000000 0
0.360000 0.000000 0
0.380000 0.000000 0
0.400000 0.000000 0
0.420000 0.000000 0
0.440000 0.000000 0
0.460000 0.000000 0
0.480000 0.000000 0
0.500000 0.000000 0
0.520000 0.000000 0
0.540000 0.000000 0
0.560000 0.000000 0
0.580000 0.000000 0
0.600000 0.000000 0
0.620000 0.000000 0
0.640000 0.000000 0
0.660000 0.000000 0
0.680000 0.000000 0
0.700000 0.000000 0
0.720000 0.000000 0
0.740000 0.000000 0
0.760000 0.000000 0
0.780000 0.000000 0
0.800000 0.000000 0
0.820000 0.000000 0
0.840000 0.000000 0
0.860000 0.000000 0
0.880000 0.000000 0
0.900000 0.000000 0
0.920000 0.000000 0
0.940000 0.000000 0
0.960000 0.000000 0
0.980000 0.000000 0
1.000000 0.000000 0
0.000000 0.020000 0
0.020000 0.020000 0
0.040000 0.020000 0
0.060000 0.020000 0
0.080000 0.020000 0
0.100000 0.020000 0
0.120000 0.020000 0
0.140000 0.020000 0
0.160000 0.020000 0
0.180000 0.020000 0
0.200000 0.020000 0
0.220000 0.020000 0
0.240000 0.020000 0
0.260000 0.020000 0
0.280000 0.020000 0
0.300000 0.020000 0
0.320000 0.020000 0
0.340000 0.020000 0
0.360000 0.020000 0
0.380000 0.020000 0
0.400000 0.020000 0
0.420000 0.020000 0
0.440000 0.020000 0
0.460000 0.020000 0
0.480000 0.020000 0
0.500000 0.020000 0
0.520000 0.020000 0
0.540000 0.020000 0
0.560000 0.020000 0
0.580000 0.020000 0
0.600000 0.020000 0
0.620000 0.020000 0
0.640000 0.020000 0
0.660000 0.020000 0
0.680000 0.020000 0
0.700000 0.020000 0
0.720000 0.020000 0
0.740000 0.020000 0
0.760000 0.020000 0
0.780000 0.020000 0
0.800000 0.020000 0
0.820000 0.020000 0
0.840000 0.020000 0
0.860000 0.020000 0
0.880000 0.020000 0
0.900000 0.020000 0
0.920000 0.020000 0
0.940000 0.020000 0
0.960000 0.020000 0
0.980000 0.020000 0
1.000000 0.020000 0
0.000000 0.040000 0
0.020000 0.040000 0
0.040000 0.040000 0
0.060000 0.040000 0
0.080000 0.040000 0
0.100000 0.040000 0
0.120000 0.040000 0
0.140000 0.040000 0
0.160000 0.040000 0
0.180000 0.040000 0
0.200000 0.040000 0
0.220000 0.040000 0
0.240000 0.040000 0
0.260000 0.040000 0
0.280000 0.040000 0
0.300000 0.040000 0
0.320000 0.040000 0
0.340000 0.040000 0
0.360000 0.040000 0
0.380000 0.040000 0
0.400000 0.040000 0
0.420000 0.040000 0
0.440000 0.040000 0
0.460000 0.040000 0
0.480000 0.040000 0
0.500000 0.040000 0
0.520000 0.040000 0
0.540000 0.040000 0
0.560000 0.040000 0
0.580000 0.040000 0
0.600000 0.040000 0
0.620000 0.040000 0
0.640000 0.040000 0
0.660000 0.040000 0
0.680000 0.040000 0
0.700000 0.040000 0
0.720000 0.040000 0
0.740000 0.040000 0
0.760000 0.040000 0
0.780000 0.040000 0
0.800000 0.040000 0
0.820000 0.040000 0
0.840000 0.040000 0
0.860000 0.040000 0
0.880000 0.040000 0
0.900000 0.040000 0
0.920000 0.040000 0
0.940000 0.040000 0
0.960000 0.040000 0
0.980000 0.040000 0
1.000000 0.040000 0
0.000000 0.060000 0
0.020000 0.060000 0
0.040000 0.060000 0
0.060000 0.060000 0
0.080000 0.060000 0
0.100000 0.060000 0
0.120000 0.060000 0
0.140000 0.060000 0
0.160000 0.060000 0
0.180000 0.060000 0
0.200000 0.060000 0
0.220000 0.060000 0
0.240000 0.060000 0
0.260000 0.060000 0
0.280000 0.060000 0
0.300000 0.060000 0
0.320000 0.060000 0
0.340000 0.060000 0
0.360000 0.060000 0
0.380000 0.060000 0
0.400000 0.060000 0
0.420000 0.060000 0
0.440000 0.060000 0
0.460000 0.060000 0
0.480000 0.060000 0
0.500000 0.060000 0
0.520000 0.060000 0
0.540000 0.060000 0
0.560000 0.060000 0
0.580000 0.060000 0
0.600000 0.060000 0
0.620000 0.060000 0
0.640000 0.060000 0
0.660000 0.060000 0
0.680000 0.060000 0
0.700000 0.060000 0
0.720000 0.060000 0
0.740000 0.060000 0
0.760000 0.060000 0
0.780000 0.060000 0
0.800000 0.060000 0
0.820000 0.060000 0
0.840000 0.060000 0
0.860000 0.060000 0
0.880000 0.060000 0
0.900000 0.060000 0
0.920000 0.060000 0
0.940000 0.060000 0
0.960000 0.060000 0
0.980000 0.060000 0
1.000000 0.060000 0
0.000000 0.080000 0
0.020000 0.080000 0
0.040000 0.080000 0
0.060000 0.080000 0
0.080000 0.080000 0
0.100000 0.080000 0
0.120000 0.080000 0
0.140000 0.080000 0
0.160000 0.080000 0
0.180000 0.080000 0
0.200000 0.080000 0
0.220000 0.080000 0
0.240000 0.080000 0
0.260000 0.080000 0
0.280000 0.080000 0
0.300000 0.080000 0
0.320000 0.080000 0
0.340000 0.080000 0
0.360000 0.080000 0
0.380000 0.080000 0
0.400000 0.080000 0
0.420000 0.080000 0
0.440000 0.080000 0
0.460000 0.080000 0
0.480000 0.080000 0
0.500000 0.080000 0
0.520000 0.080000 0
0.540000 0.080000 0
0.560000 0.080000 0
0.580000 0.080000 0
0.600000 0.080000 0
0.620000 0.080000 0
0.640000 0.080000 0
0.660000 0.080000 0
0.680000 0.080000 0
0.700000 0.080000 0
0.720000 0.080000 0
0.740000 0.080000 0
0.760000 0.080000 0
0.780000 0.080000 0
0.800000 0.080000 0
0.820000 0.080000 0
0.840000 0.080000 0
0.860000 0.080000 0
0.880000 0.080000 0
0.900000 0.080000 0
0.920000 0.080000 0
0.940000 0.080000 0
0.960000 0.080000 0
0.980000 0.080000 0
1.000000 0.080000 0
0.000000 0.100000 0
0.020000 0.100000 0
0.040000 0.100000 0
0.060000 0.100000 0
0.080000 0.100000 0
0.100000 0.100000 0
0.120000 0.100000 0
0.140000 0.100000 0
0.160000 0.100000 0
0.180000 0.100000 0
0.200000 0.100000 0
0.220000 0.100000 0
0.240000 0.100000 0
0.260000 0.100000 0
0.280000 0.100000 0
0.300000 0.100000 0
0.320000 0.100000 0
0.340000 0.100000 0
0.360000 0.100000 0
0.380000 0.100000 0
0.400000 0.100000 0
0.420000 0.100000 0
0.440000 0.100000 0
0.460000 0.100000 0
0.480000 0.100000 0
0.500000 0.100000 0
0.520000 0.100000 0
0.540000 0.100000 0
0.560000 0.100000 0
0.580000 0.100000 0
0.600000 0.100000 0
0.620000 0.100000 0
0.640000 0.100000 0
0.660000 0.100000 0
0.680000 0.100000 0
0.700000 0.100000 0
0.720000 0.100000 0
0.740000 0.100000 0
0.760000 0.100000 0
0.780000 0.100000 0
0.800000 0.100000 0
0.820000 0.100000 0
0.840000 0.100000 0
0.860000 0.100000 0
0.880000 0.100000 0
0.900000 0.100000 0
0.920000 0.100000 0
0.940000 0.100000 0
0.960000 0.100000 0
0.980000 0.100000 0
1.000000 0.100000 0
0.000000 0.120000 0
0.020000 0.120000 0
0.040000 0.120000 0
0.060000 0.120000 0
0.080000 0.120000 0
0.100000 0.120000 0
0.120000 0.120000 0
0.140000 0.120000 0
0.160000 0.120000 0
0.180000 0.120000 0
0.200000 0.120000 0
0.220000 0.120000 0
0.240000 0.120000 0
0.260000 0.120000 0
0.280000 0.120000 0
0.300000 0.120000 0
0.320000 0.120000 0
0.340000 0.120000 0
0.360000 0.120000 0
0.380000 0.120000 0
0.400000 0.120000 0
0.420000 0.120000 0
0.440000 0.120000 0
0.460000 0.120000 0
0.480000 0.120000 0
0.500000 0.120000 0
0.520000 0.120000 0
0.540000 0.120000 0
0.560000 0.120000 0
0.580000 0.120000 0
0.600000 0.120000 0
0.620000 0.120000 0
0.640000 0.120000 0
0.660000 0.120000 0
0.680000 0.120000 0
0.700000 0.120000 0
0.720000 0.120000 0
0.740000 0.120000 0
0.760000 0.120000 0
0.780000 0.120000 0
0.800000 0.120000 0
0.820000 0.120000 0
0.840000 0.120000 0
0.860000 0.120000 0
0.880000 0.120000 0
0.900000 0.120000 0
0.920000 0.120000 0
0.940000 0.120000 0
0.960000 0.120000 0
0.980000 0.120000 0
1.000000 0.120000 0
0.000000 0.140000 0
0.020000 0.140000 0
0.040000 0.140000 0
0.060000 0.140000 0
0.080000 0.140000 0
0.100000 0.140000 0
0.120000 0.140000 0
0.140000 0.140000 0
0.160000 0.140000 0
0.180000 0.140000 0
0.200000 0.140000 0
0.220000 0.140000 0
0.240000 0.140000 0
0.260000 0.140000 0
0.280000 0.140000 0
0.300000 0.140000 0
0.320000 0.140000 0
0.340000 0.140000 0
0.360000 0.140000 0
0.380000 0.140000 0
0.400000 0.140000 0
0.420000 0.140000 0
0.440000 0.140000 0
0.460000 0.140000 0
0.480000 0.140000 0
0.500000 0.140000 0
0.520000 0.140000 0
0.540000 0.140000 0
0.560000 0.140000 0
0.580000 0.140000 0
0.600000 0.140000 0
0.620000 0.140000 0
0.640000 0.140000 0
0.660000 0.140000 0
0.680000 0.140000 0
0.700000 0.140000 0
0.720000 0.140000 0
0.740000 0.140000 0
0.760000 0.140000 0
0.780000 0.140000 0
0.800000 0.140000 0
0.820000 0.140000 0
0.840000 0.140000 0
0.860000 0.140000 0
0.880000 0.140000 0
0.900000 0.140000 0
0.920000 0.140000 0
0.940000 0.140000 0
0.960000 0.140000 0
0.980000 0.140000 0
1.000000 0.140000 0
0.000000 0.160000 0
0.020000 0.160000 0
0.040000 0.160000 0
0.060000 0.160000 0
0.080000 0.160000 0
0.100000 0.160000 0
0.120000 0.160000 0
0.140000 0.160000 0
0.160000 0.160000 0
0.180000 0.160000 0
0.200000 0.160000 0
0.220000 0.160000 0
0.240000 0.160000 0
0.260000 0.160000 0
0.280000 0.160000 0
0.300000 0.160000 0
0.320000 0.160000 0
0.340000 0.160000 0
0.360000 0.160000 0
0.380000 0.160000 0
0.400000 0.160000 0
0.420000 0.160000 0
0.440000 0.160000 0
0.460000 0.160000 0
0.480000 0.160000 0
0.500000 0.160000 0
0.520000 0.160000 0
0.540000 0.160000 0
0.560000 0.160000 0
0.580000 0.160000 0
0.600000 0.160000 0
0.620000 0.160000 0
0.640000 0.160000 0
0.660000 0.160000 0
0.680000 0.160000 0
0.700000 0.160000 0
0.720000 0.160000 0
0.740000 0.160000 0
0.760000 0.160000 0
0.780000 0.160000 0
0.800000 0.160000 0
0.820000 0.160000 0
0.840000 0.160000 0
0.860000 0.160000 0
0.880000 0.160000 0
0.900000 0.160000 0
0.920000 0.160000 0
0.940000 0.160000 0
0.960000 0.160000 0
0.980000 0.160000 0
1.000000 0.160000 0
0.000000 0.180000 0
0.020000 0.180000 0
0.040000 0.180000 0
0.060000 0.180000 0
0.080000 0.180000 0
0.100000 0.180000 0
0.120000 0.180000 0
0.140000 0.180000 0
0.160000 0.180000 0
0.180000 0.180000 0
0.200000 0.180000 0
0.220000 0.180000 0
0.240000 0.180000 0
0.260000 0.180000 0
0.280000 0.180000 0
0.300000 0.180000 0
0.320000 0.180000 0
0.340000 0.180000 0
0.360000 0.180000 0
0.380000 0.180000 0
0.400000 0.180000 0
0.420000 0.180000 0
0.440000 0.180000 0
0.460000 0.180000 0
0.480000 0.180000 0
0.500000 0.180000 0
0.520000 0.180000 0
0.540000 0.180000 0
0.560000 0.180000 0
0.580000 0.180000 0
0.600000 0.180000 0
0.620000 0.180000 0
[...]
POINT_DATA 2601 

VECTORS velocity float
0.000000 0.000000 0
0.000001 0.000000 0
0.000001 0.000000 0
-0.000000 0.000000 0
-0.000002 0.000000 0
-0.000004 0.000000 0
-0.000006 0.000000 0
-0.000010 0.000000 0
-0.000015 0.000000 0
-0.000021 0.000000 0
-0.000028 0.000000 0
-0.000034 0.000000 0
-0.000036 0.000000 0
-0.000036 0.000000 0
-0.000030 0.000000 0
-0.000020 0.000000 0
-0.000007 0.000000 0
0.000003 0.000000 0
0.000010 0.000000 0
0.000015 0.000000 0
0.000017 0.000000 0
0.000018 0.000000 0
0.000017 0.000000 0
0.000015 0.000000 0
0.000012 0.000000 0
0.000009 0.000000 0
0.000006 0.000000 0
0.000004 0.000000 0
0.000002 0.000000 0
0.000001 0.000000 0
0.000001 0.000000 0
0.000000 0.000000 0
0.000000 0.000000 0
0.000000 0.000000 0
0.000001 0.000000 0
0.000001 0.000000 0
0.000001 0.000000 0
0.000001 0.000000 0
0.000001 0.000000 0
0.000001 0.000000 0
0.000001 0.000000 0
0.000001 0.000000 0
0.000001 0.000000 0
0.000001 0.000000 0
0.000001 0.000000 0
0.000001 0.000000 0
0.000000 0.000000 0
0.000000 0.000000 0
0.000000 0.000000 0
0.000000 0.000000 0
0.000000 0.000000 0
0.000000 -0.000001 0
-0.009681 0.008999 0
-0.026029 0.010777 0
-0.039543 0.007862 0
-0.049094 0.004806 0
-0.055102 0.002125 0
-0.057560 -0.000671 0
-0.056216 -0.004053 0
-0.050582 -0.008260 0
-0.040163 -0.013201 0
-0.024647 -0.018373 0
-0.004029 -0.022513 0
0.021270 -0.024733 0
0.049963 -0.024660 0
0.079752 -0.021590 0
0.107833 -0.015532 0
0.130886 -0.007625 0
0.145605 0.000163 0
0.149895 0.006290 0
0.144003 0.010715 0
0.130871 0.013911 0
0.112832 0.016076 0
0.091967 0.017124 0
0.070273 0.016868 0
0.049602 0.015240 0
0.031493 0.012458 0
0.016990 0.009042 0
0.006517 0.005673 0
-0.000153 0.002943 0
-0.003764 0.001191 0
-0.005383 0.000309 0
-0.005946 -0.000084 0
-0.005970 -0.000250 0
-0.005698 -0.000332 0
-0.005239 -0.000392 0
-0.004640 -0.000446 0
-0.003931 -0.000492 0
-0.003148 -0.000518 0
-0.002340 -0.000518 0
-0.001558 -0.000487 0
-0.000852 -0.000426 0
-0.000263 -0.000342 0
0.000179 -0.000244 0
0.000462 -0.000142 0
0.000593 -0.000048 0
0.000590 0.000029 0
0.000488 0.000081 0
0.000329 0.000101 0
0.000163 0.000087 0
0.000041 0.000043 0
0.000000 0.000000 0
0.000000 -0.000001 0
-0.014698 0.026029 0
-0.037046 0.029861 0
-0.056074 0.023065 0
-0.070349 0.015559 0
-0.080136 0.008466 0
-0.085397 0.001113 0
-0.086078 -0.006979 0
-0.082325 -0.016054 0
-0.074212 -0.025936 0
-0.061880 -0.036135 0
-0.045304 -0.045918 0
-0.023941 -0.053994 0
0.002294 -0.058485 0
0.033267 -0.057872 0
0.068238 -0.051135 0
0.104148 -0.037773 0
0.136715 -0.019009 0
0.159812 0.001601 0
0.167952 0.019023 0
0.161197 0.031170 0
0.144241 0.038903 0
0.121356 0.042559 0
0.096171 0.042366 0
0.071471 0.038780 0
0.049173 0.032612 0
0.030434 0.024976 0
0.015817 0.017142 0
0.005381 0.010281 0
-0.001312 0.005231 0
-0.005040 0.002182 0
-0.006814 0.000586 0
-0.007467 -0.000249 0
-0.007427 -0.000730 0
-0.006946 -0.001058 0
-0.006156 -0.001309 0
-0.005150 -0.001491 0
-0.004015 -0.001590 0
-0.002843 -0.001590 0
-0.001720 -0.001488 0
-0.000725 -0.001294 0
0.000084 -0.001030 0
0.000669 -0.000725 0
0.001019 -0.000414 0
0.001147 -0.000128 0
0.001084 0.000105 0
0.000880 0.000261 0
0.000598 0.000324 0
0.000311 0.000288 0
0.000091 0.000164 0
0.000000 0.000000 0
0.000000 -0.000001 0
-0.016030 0.046045 0
-0.040419 0.052152 0
-0.061527 0.041165 0
-0.077570 0.028868 0
-0.088987 0.017172 0
-0.096031 0.005271 0
-0.098918 -0.007126 0
-0.098099 -0.020127 0
-0.093981 -0.033647 0
-0.086822 -0.047282 0
-0.076761 -0.060453 0
-0.063771 -0.072331 0
-0.047338 -0.081869 0
-0.026435 -0.087534 0
-0.000266 -0.086413 0
0.031449 -0.076102 0
0.067932 -0.055502 0
0.104165 -0.024947 0
0.132337 0.009330 0
0.142399 0.037621 0
0.136367 0.055917 0
0.120794 0.065195 0
0.100583 0.066753 0
0.079194 0.062238 0
0.058828 0.053496 0
0.040752 0.042397 0
0.025650 0.030726 0
0.013823 0.020072 0
0.005249 0.011612 0
-0.000355 0.005811 0
-0.003574 0.002342 0
-0.005143 0.000363 0
-0.005624 -0.000853 0
-0.005395 -0.001663 0
-0.004705 -0.002242 0
-0.003720 -0.002632 0
-0.002582 -0.002825 0
-0.001419 -0.002813 0
-0.000339 -0.002604 0
0.000575 -0.002230 0
0.001267 -0.001735 0
0.001712 -0.001179 0
0.001909 -0.000620 0
0.001876 -0.000112 0
0.001653 0.000296 0
0.001293 0.000567 0
0.000865 0.000670 0
0.000451 0.000595 0
0.000134 0.000354 0
0.000000 0.000000 0
0.000000 -0.000001 0
-0.015251 0.066447 0
-0.039640 0.075358 0
-0.061348 0.060216 0
-0.077901 0.043019 0
-0.089936 0.026926 0
-0.098070 0.011044 0
-0.102775 -0.004911 0
-0.104495 -0.020991 0
-0.103763 -0.037215 0
-0.100839 -0.053356 0
-0.095872 -0.068970 0
-0.088878 -0.083418 0
-0.079674 -0.095822 0
-0.067941 -0.104944 0
-0.052996 -0.109019 0
-0.033054 -0.105972 0
-0.006905 -0.091726 0
0.025758 -0.062804 0
0.063316 -0.019211 0
0.094977 0.027140 0
0.103212 0.060508 0
0.100071 0.078343 0
0.090185 0.083966 0
0.076914 0.080535 0
0.062452 0.071053 0
0.048191 0.058154 0
0.035068 0.044072 0
0.023704 0.030682 0
0.014527 0.019409 0
0.007727 0.011005 0
0.003187 0.005374 0
0.000552 0.001802 0
-0.000699 -0.000478 0
-0.000977 -0.001976 0
-0.000646 -0.002983 0
0.000029 -0.003614 0
0.000851 -0.003891 0
0.001668 -0.003834 0
0.002372 -0.003482 0
0.002893 -0.002901 0
0.003196 -0.002168 0
0.003273 -0.001366 0
0.003135 -0.000577 0
0.002810 0.000128 0
0.002334 0.000688 0
0.001761 0.001049 0
0.001154 0.001167 0
0.000595 0.001019 0
0.000176 0.000614 0
0.000000 0.000000 0
0.000000 -0.000001 0
-0.013230 0.085684 0
-0.036332 0.098249 0
-0.057944 0.079426 0
-0.074607 0.057456 0
-0.086991 0.037341 0
-0.096015 0.018109 0
-0.102275 -0.000702 0
-0.106199 -0.019138 0
-0.108327 -0.037303 0
-0.108961 -0.055173 0
-0.108287 -0.072414 0
-0.106393 -0.088530 0
-0.103227 -0.102807 0
-0.098575 -0.114213 0
-0.091952 -0.121300 0
-0.082487 -0.122193 0
-0.069113 -0.114314 0
-0.048903 -0.095169 0
-0.019760 -0.059889 0
0.018017 -0.002273 0
0.051931 0.050822 0
0.064982 0.078221 0
0.068226 0.089910 0
0.065989 0.089971 0
0.060162 0.082219 0
0.052089 0.069780 0
0.042973 0.055213 0
0.033764 0.040613 0
0.025306 0.027590 0
0.018225 0.017151 0
0.012860 0.009517 0
0.009218 0.004249 0
0.007024 0.000676 0
0.005924 -0.001716 0
0.005565 -0.003247 0
0.005594 -0.004129 0
0.005766 -0.004464 0
0.005923 -0.004334 0
0.005970 -0.003829 0
0.005861 -0.003054 0
0.005582 -0.002115 0
0.005139 -0.001118 0
0.004555 -0.000157 0
0.003857 0.000688 0
0.003077 0.001345 0
0.002258 0.001747 0
0.001456 0.001837 0
0.000744 0.001573 0
0.000219 0.000949 0
0.000000 0.000000 0
0.000000 0.000000 0
-0.010539 0.102778 0
-0.031446 0.120072 0
-0.052578 0.098491 0
-0.069293 0.072067 0
-0.081997 0.048334 0
-0.091831 0.026327 0
-0.099484 0.005273 0
-0.105389 -0.014939 0
-0.109944 -0.034453 0
-0.113589 -0.053396 0
-0.116547 -0.071539 0
-0.118979 -0.088478 0
-0.120956 -0.103640 0
-0.122406 -0.116219 0
-0.123009 -0.125108 0
-0.122061 -0.128811 0
-0.118400 -0.125310 0
-0.110050 -0.112158 0
-0.094936 -0.086132 0
-0.068115 -0.044550 0
-0.023252 0.013544 0
0.015167 0.062047 0
0.037170 0.082958 0
0.047773 0.088599 0
0.052030 0.084954 0
0.051667 0.075342 0
0.048172 0.062396 0
0.042654 0.048349 0
0.036299 0.034948 0
0.030025 0.023451 0
0.024513 0.014381 0
0.020169 0.007637 0
0.017030 0.002816 0
0.014867 -0.000517 0
0.013419 -0.002653 0
0.012407 -0.003815 0
0.011580 -0.004221 0
0.010788 -0.004038 0
0.009955 -0.003420 0
0.009049 -0.002511 0
0.008072 -0.001446 0
0.007037 -0.000340 0
0.005964 0.000705 0
0.004873 0.001607 0
0.003788 0.002287 0
0.002734 0.002670 0
0.001748 0.002682 0
0.000891 0.002256 0
0.000263 0.001358 0
0.000000 0.000001 0
0.000000 0.000001 0
-0.007624 0.117130 0
-0.025651 0.140287 0
-0.045986 0.117273 0
-0.062799 0.086875 0
-0.075852 0.059879 0
-0.086432 0.035596 0
-0.095345 0.012856 0
-0.103030 -0.008679 0
-0.109701 -0.029103 0
-0.115939 -0.048571 0
-0.122006 -0.067025 0
-0.128089 -0.084122 0
-0.134312 -0.099380 0
-0.140698 -0.112161 0
-0.147087 -0.121645 0
-0.153001 -0.126801 0
-0.157455 -0.126325 0
-0.158653 -0.118633 0
-0.153845 -0.101824 0
-0.138661 -0.073958 0
-0.108270 -0.032460 0
-0.058122 0.017799 0
-0.010830 0.057304 0
0.020137 0.075112 0
0.037791 0.078324 0
0.046354 0.073638 0
0.049668 0.064226 0
0.049057 0.052486 0
0.046090 0.040218 0
0.041731 0.028937 0
0.036866 0.019373 0
0.032281 0.011733 0
0.028343 0.005978 0
0.025047 0.001895 0
0.022239 -0.000787 0
0.019816 -0.002290 0
0.017668 -0.002846 0
0.015692 -0.002709 0
0.013820 -0.002090 0
0.012029 -0.001171 0
0.010315 -0.000103 0
0.008686 0.000990 0
0.007149 0.002007 0
0.005709 0.002864 0
0.004369 0.003485 0
0.003128 0.003788 0
0.001999 0.003680 0
0.001027 0.003057 0
0.000308 0.001840 0
0.000000 0.000001 0
0.000000 0.000002 0
-0.004836 0.128428 0
-0.019466 0.158434 0
-0.038632 0.135639 0
-0.055577 0.101932 0
-0.069016 0.071966 0
-0.080246 0.045821 0
-0.090246 0.021871 0
-0.099482 -0.000584 0
-0.108156 -0.021543 0
-0.116685 -0.041092 0
-0.125458 -0.059390 0
-0.134655 -0.076172 0
-0.144381 -0.091030 0
-0.154643 -0.103444 0
-0.165303 -0.112805 0
-0.175985 -0.118442 0
-0.185931 -0.119658 0
-0.193779 -0.115768 0
-0.197336 -0.106124 0
-0.193294 -0.090125 0
-0.177346 -0.066995 0
-0.143522 -0.035393 0
-0.092656 0.004699 0
-0.039114 0.039978 0
0.003594 0.058738 0
0.030732 0.063465 0
0.044696 0.059693 0
0.050786 0.051928 0
0.052647 0.042274 0
0.051253 0.032675 0
0.047788 0.023830 0
0.043540 0.016160 0
0.039134 0.010050 0
0.034794 0.005587 0
0.030625 0.002578 0
0.026731 0.000757 0
0.023168 -0.000096 0
0.019923 -0.000190 0
0.016974 0.000243 0
0.014309 0.000993 0
0.011919 0.001897 0
0.009785 0.002826 0
0.007889 0.003682 0
0.006206 0.004387 0
0.004709 0.004868 0
0.003369 0.005039 0
0.002173 0.004782 0
0.001138 0.003948 0
0.000353 0.002385 0
0.000000 0.000001 0
0.000000 0.000003 0
-0.002435 0.136596 0
-0.013329 0.174084 0
-0.030842 0.153383 0
-0.047875 0.117259 0
-0.061738 0.084548 0
-0.073504 0.056825 0
-0.084383 0.032091 0
-0.094984 0.009231 0
-0.105594 -0.011900 0
-0.116187 -0.031268 0
-0.127312 -0.049055 0
-0.139155 -0.065199 0
-0.151757 -0.079392 0
-0.165038 -0.091239 0
-0.178766 -0.100304 0
-0.192513 -0.106173 0
-0.205594 -0.108531 0
-0.216988 -0.107228 0
-0.225278 -0.102309 0
-0.228582 -0.093947 0
-0.224558 -0.082232 0
-0.210243 -0.066892 0
-0.181804 -0.047104 0
-0.136390 -0.021138 0
-0.083940 0.008478 0
-0.033758 0.032536 0
0.005810 0.044172 0
0.032069 0.044535 0
0.045786 0.039751 0
0.051090 0.033796 0
0.051243 0.027087 0
0.048979 0.020387 0
0.045244 0.014724 0
0.040589 0.010404 0
0.035591 0.007276 0
0.030747 0.005167 0
0.026214 0.003962 0
0.022063 0.003485 0
0.018349 0.003524 0
0.015099 0.003885 0
0.012301 0.004421 0
0.009910 0.005019 0
0.007872 0.005586 0
0.006133 0.006045 0
0.004642 0.006322 0
0.003344 0.006324 0
0.002199 0.005911 0
0.001193 0.004877 0
0.000392 0.002978 0
0.000000 0.000001 0
0.000000 0.000004 0
-0.000593 0.141757 0
-0.007605 0.186841 0
-0.022889 0.170185 0
-0.039839 0.132827 0
-0.054179 0.097595 0
-0.066411 0.068466 0
-0.077975 0.043351 0
-0.089684 0.020627 0
-0.101900 -0.000340 0
-0.114551 -0.019375 0
-0.127726 -0.036422 0
-0.141762 -0.051728 0
-0.156654 -0.065147 0
-0.172222 -0.076435 0
-0.188127 -0.085330 0
-0.203847 -0.091614 0
-0.218687 -0.095182 0
-0.231804 -0.096084 0
-0.242266 -0.094531 0
-0.249120 -0.090846 0
-0.251420 -0.085334 0
-0.248135 -0.078147 0
-0.237939 -0.069153 0
-0.218940 -0.057886 0
-0.188116 -0.043894 0
-0.146183 -0.026285 0
-0.099517 -0.006134 0
-0.055566 0.011951 0
-0.019716 0.023253 0
0.006928 0.027219 0
0.024141 0.025941 0
0.032411 0.022158 0
0.034764 0.018441 0
0.033572 0.015239 0
0.030538 0.012419 0
0.026915 0.010134 0
0.023095 0.008588 0
0.019351 0.007675 0
0.015911 0.007207 0
0.012901 0.007042 0
0.010358 0.007085 0
0.008235 0.007255 0
0.006477 0.007459 0
0.005027 0.007618 0
0.003827 0.007657 0
0.002815 0.007482 0
0.001925 0.006934 0
0.001112 0.005754 0
0.000404 0.003578 0
0.000000 0.000001 0
0.000000 0.000005 0
0.000719 0.144201 0
-0.002615 0.196379 0
-0.015045 0.185617 0
-0.031578 0.148549 0
-0.046446 0.111120 0
-0.059148 0.080621 0
-0.071227 0.055364 0
-0.083735 0.033157 0
-0.097131 0.012967 0
-0.111575 -0.005443 0
-0.126693 -0.021844 0
-0.142505 -0.036271 0
-0.159119 -0.048931 0
-0.176307 -0.059766 0
-0.193675 -0.068679 0
-0.210674 -0.075613 0
-0.226634 -0.080574 0
-0.240827 -0.083649 0
-0.252559 -0.084994 0
-0.261247 -0.084794 0
-0.266475 -0.083217 0
-0.267968 -0.080373 0
-0.265496 -0.076299 0
-0.258704 -0.070962 0
-0.246926 -0.064279 0
-0.229351 -0.056063 0
-0.204376 -0.046446 0
-0.172160 -0.035266 0
-0.135696 -0.022743 0
-0.099755 -0.010061 0
-0.067580 0.001604 0
-0.041627 0.009763 0
-0.022174 0.013562 0
-0.008578 0.014631 0
-0.000101 0.013933 0
0.004109 0.012610 0
0.005723 0.011526 0
0.005860 0.010669 0
0.005294 0.009974 0
0.004475 0.009437 0
0.003666 0.009086 0
0.002942 0.008901 0
0.002343 0.008795 0
0.001881 0.008694 0
0.001539 0.008534 0
0.001274 0.008227 0
0.001024 0.007613 0
0.000719 0.006398 0
0.000329 0.004091 0
0.000000 0.000001 0
0.000000 0.000005 0
0.001699 0.144372 0
0.001403 0.202605 0
-0.007624 0.199147 0
-0.023216 0.164229 0
-0.038600 0.125165 0
-0.051846 0.093247 0
-0.064356 0.067938 0
-0.077423 0.046530 0
-0.091621 0.027500 0
-0.107149 0.010188 0
-0.123865 -0.005493 0
-0.141290 -0.019302 0
-0.159148 -0.031344 0
-0.177376 -0.041879 0
-0.195611 -0.050962 0
-0.213376 -0.058655 0
-0.230094 -0.065029 0
-0.245174 -0.070158 0
-0.258058 -0.074112 0
-0.268292 -0.076930 0
-0.275552 -0.078613 0
-0.279649 -0.079125 0
-0.280510 -0.078417 0
-0.278134 -0.076456 0
-0.272548 -0.073247 0
-0.263757 -0.068835 0
-0.251620 -0.063326 0
-0.236221 -0.056728 0
-0.217148 -0.049152 0
-0.194505 -0.040897 0
-0.168820 -0.032186 0
-0.141181 -0.023248 0
-0.114421 -0.014608 0
-0.090229 -0.006834 0
-0.069521 -0.000268 0
-0.052764 0.004310 0
-0.039618 0.006837 0
-0.029536 0.008104 0
-0.022008 0.008593 0
-0.016512 0.008669 0
-0.012561 0.008617 0
-0.009577 0.008578 0
-0.007214 0.008521 0
-0.005267 0.008423 0
-0.003621 0.008265 0
-0.002234 0.007997 0
-0.001114 0.007489 0
-0.000325 0.006450 0
0.000044 0.004297 0
0.000000 0.000000 0
0.000000 0.000006 0
0.002446 0.142798 0
0.004409 0.205701 0
-0.000956 0.210236 0
-0.014936 0.179525 0
-0.030680 0.139751 0
-0.044581 0.106377 0
-0.057519 0.080941 0
-0.070978 0.060422 0
-0.085633 0.042692 0
-0.101671 0.026801 0
-0.119089 0.012297 0
-0.137564 -0.000988 0
-0.156524 -0.012845 0
-0.175492 -0.023302 0
-0.194161 -0.032679 0
-0.212295 -0.041129 0
-0.229462 -0.048776 0
-0.245239 -0.055685 0
-0.259188 -0.061875 0
-0.270922 -0.067300 0
-0.280111 -0.071860 0
-0.286500 -0.075415 0
-0.289917 -0.077814 0
-0.290276 -0.078923 0
-0.287591 -0.078656 0
-0.281977 -0.076991 0
-0.273634 -0.073982 0
-0.262846 -0.069737 0
-0.249792 -0.064459 0
-0.234734 -0.058389 0
-0.217938 -0.051720 0
-0.199628 -0.044635 0
-0.180004 -0.037389 0
-0.159510 -0.030269 0
-0.138644 -0.023532 0
-0.117998 -0.017294 0
-0.098736 -0.011702 0
-0.081400 -0.006940 0
-0.066247 -0.003049 0
-0.053262 -0.000009 0
-0.042290 0.002151 0
-0.033061 0.003554 0
-0.025310 0.004485 0
-0.018812 0.005101 0
-0.013390 0.005500 0
-0.008899 0.005720 0
-0.005258 0.005704 0
-0.002453 0.005241 0
-0.000621 0.003766 0
0.000000 -0.000001 0
0.000000 0.000006 0
0.002981 0.139963 0
0.006566 0.206007 0
0.004562 0.218493 0
-0.006951 0.193953 0
-0.022720 0.154810 0
-0.037358 0.120086 0
-0.050786 0.094335 0
-0.064548 0.074644 0
-0.079449 0.058193 0
-0.095650 0.043644 0
-0.113081 0.030400 0
-0.131584 0.018133 0
-0.150858 0.006584 0
-0.170277 -0.004241 0
-0.189401 -0.014159 0
-0.207740 -0.023354 0
-0.225097 -0.032085 0
-0.241310 -0.040432 0
-0.256078 -0.048428 0
-0.269089 -0.056007 0
-0.280018 -0.063034 0
-0.288550 -0.069318 0
-0.294412 -0.074641 0
-0.297385 -0.078782 0
-0.297336 -0.081546 0
-0.294239 -0.082792 0
-0.288192 -0.082457 0
-0.279417 -0.080570 0
-0.268226 -0.077264 0
-0.255035 -0.072752 0
-0.240282 -0.067292 0
-0.224353 -0.061181 0
-0.207565 -0.054726 0
-0.190217 -0.048194 0
-0.172575 -0.041780 0
-0.154908 -0.035598 0
-0.137367 -0.029761 0
-0.120192 -0.024385 0
-0.103600 -0.019545 0
-0.087806 -0.015287 0
-0.072995 -0.011583 0
-0.059432 -0.008403 0
-0.047202 -0.005729 0
-0.036311 -0.003497 0
-0.026733 -0.001648 0
-0.018423 -0.000135 0
-0.011382 0.001043 0
-0.005708 0.001813 0
-0.001697 0.001844 0
0.000000 -0.000002 0
0.000000 0.000007 0
0.003337 0.136231 0
0.008048 0.204120 0
0.008679 0.223753 0
0.000465 0.206808 0
-0.014800 0.170158 0
-0.030146 0.134443 0
-0.044145 0.108132 0
-0.058165 0.089084 0
-0.073154 0.073794 0
-0.089292 0.060433 0
-0.106460 0.048231 0
-0.124460 0.036788 0
-0.143067 0.025849 0
-0.162086 0.015242 0
-0.181103 0.004784 0
-0.199596 -0.005433 0
-0.217233 -0.015205 0
-0.233688 -0.024703 0
-0.248941 -0.034095 0
-0.262849 -0.043360 0
-0.275145 -0.052398 0
-0.285500 -0.061021 0
-0.293578 -0.068979 0
-0.299062 -0.075999 0
-0.301682 -0.081802 0
-0.301252 -0.086134 0
-0.297698 -0.088803 0
-0.291084 -0.089703 0
-0.281614 -0.088841 0
-0.269634 -0.086333 0
-0.255586 -0.082402 0
-0.239961 -0.077352 0
-0.223259 -0.071525 0
-0.205951 -0.065259 0
-0.188430 -0.058841 0
-0.170989 -0.052502 0
-0.153803 -0.046417 0
-0.137003 -0.040708 0
-0.120684 -0.035435 0
-0.104931 -0.030614 0
-0.089827 -0.026224 0
-0.075424 -0.022239 0
-0.061798 -0.018635 0
-0.049026 -0.015368 0
-0.037189 -0.012388 0
-0.026398 -0.009631 0
-0.016818 -0.007011 0
-0.008753 -0.004444 0
-0.002761 -0.001942 0
0.000000 -0.000004 0
0.000000 0.000007 0
0.003545 0.131915 0
0.008978 0.200665 0
0.011546 0.226076 0
0.006736 0.217432 0
-0.007000 0.185421 0
-0.022889 0.149432 0
-0.037528 0.122354 0
-0.051785 0.103653 0
-0.066731 0.089320 0
-0.082620 0.076950 0
-0.099324 0.065569 0
-0.116640 0.054741 0
-0.134369 0.044210 0
-0.152330 0.033795 0
-0.170344 0.023351 0
-0.188293 0.012776 0
-0.205810 0.002007 0
-0.222495 -0.008724 0
-0.238081 -0.019267 0
-0.252459 -0.029803 0
-0.265630 -0.040382 0
-0.277335 -0.050884 0
-0.287230 -0.061079 0
-0.294947 -0.070678 0
-0.300124 -0.079356 0
-0.302439 -0.086775 0
-0.301651 -0.092624 0
-0.297640 -0.096654 0
-0.290441 -0.098713 0
-0.280249 -0.098780 0
-0.267416 -0.096965 0
-0.252412 -0.093508 0
-0.235781 -0.088736 0
-0.218085 -0.083023 0
-0.199842 -0.076742 0
-0.181485 -0.070225 0
-0.163343 -0.063747 0
-0.145655 -0.057504 0
-0.128571 -0.051618 0
-0.112181 -0.046144 0
-0.096523 -0.041089 0
-0.081604 -0.036432 0
-0.067437 -0.032127 0
-0.054042 -0.028106 0
-0.041471 -0.024276 0
-0.029823 -0.020507 0
-0.019287 -0.016602 0
-0.010204 -0.012243 0
-0.003277 -0.006909 0
0.000000 -0.000004 0
0.000000 0.000007 0
0.003632 0.127253 0
0.009480 0.196118 0
0.013418 0.225994 0
0.011427 0.225353 0
0.000479 0.199784 0
-0.015581 0.164972 0
-0.030850 0.137028 0
-0.045339 0.118287 0
-0.060139 0.104630 0
-0.075633 0.093027 0
-0.091728 0.082250 0
-0.108231 0.071833 0
-0.124966 0.061540 0
-0.141790 0.051217 0
-0.158599 0.040747 0
-0.175311 0.030033 0
-0.191847 0.018997 0
-0.208114 0.007568 0
-0.223724 -0.004131 0
-0.238372 -0.015809 0
-0.251886 -0.027522 0
-0.264358 -0.039421 0
-0.275524 -0.051367 0
-0.285024 -0.063105 0
-0.292459 -0.074310 0
-0.297417 -0.084607 0
-0.299517 -0.093601 0
-0.298461 -0.100913 0
-0.294080 -0.106232 0
-0.286378 -0.109358 0
-0.275545 -0.110240 0
-0.261949 -0.108986 0
-0.246101 -0.105852 0
-0.228588 -0.101198 0
-0.210013 -0.095442 0
-0.190930 -0.089000 0
-0.171806 -0.082247 0
-0.153003 -0.075480 0
-0.134775 -0.068909 0
-0.117287 -0.062663 0
-0.100626 -0.056800 0
-0.084833 -0.051325 0
-0.069924 -0.046197 0
-0.055914 -0.041334 0
-0.042833 -0.036606 0
-0.030758 -0.031815 0
-0.019853 -0.026630 0
-0.010462 -0.020455 0
-0.003316 -0.012147 0
0.000000 -0.000004 0
0.000000 0.000007 0
0.003625 0.122434 0
0.009651 0.190879 0
0.014491 0.224129 0
0.014685 0.230371 0
0.006999 0.212428 0
-0.008236 0.180762 0
-0.024021 0.152113 0
-0.038750 0.132942 0
-0.053337 0.119614 0
-0.068328 0.108540 0
-0.083715 0.098167 0
-0.099331 0.087978 0
-0.115019 0.077770 0
-0.130665 0.067428 0
-0.146195 0.056872 0
-0.161568 0.046025 0
-0.176764 0.034811 0
-0.191765 0.023154 0
-0.206560 0.010992 0
-0.220938 -0.001640 0
-0.234528 -0.014396 0
-0.247158 -0.027247 0
-0.258953 -0.040413 0
-0.269642 -0.053743 0
-0.278850 -0.066962 0
-0.286140 -0.079716 0
-0.291041 -0.091580 0