# vtk DataFile Version 2.0
generated by CFD-lab course output (written by Tobias Neckel) 
ASCII

DATASET STRUCTURED_GRID
DIMENSIONS  51 51 1 
POINTS 2601 float

0.000000 0.000000 0
0.020000 0.000000 0
0.040000 0.000000 0
0.060000 0.000000 0
0.080000 0.000000 0
0.100000 0.000000 0
0.120000 0.000000 0
0.140000 0.000000 0
0.160000 0.000000 0
0.180000 0.000000 0
0.200000 0.000000 0
0.220000 0.000000 0
0.240000 0.000000 0
0.260000 0.000000 0
0.280000 0.000000 0
0.300000 0.000000 0
0.320000 0.000000 0
0.340000 0.000000 0
0.360000 0.000000 0
0.380000 0.000000 0
0.400000 0.000000 0
0.420000 0.000000 0
0.440000 0.000000 0
0.460000 0.000000 0
0.480000 0.000000 0
0.500000 0.000000 0
0.520000 0.000000 0
0.540000 0.000000 0
0.560000 0.000000 0
0.580000 0.000000 0
0.600000 0.000000 0
0.620000 0.000000 0
0.640000 0.000000 0
0.660000 0.000000 0
0.680000 0.000000 0
0.700000 0.000000 0
0.720000 0.000000 0
0.740000 0.000000 0
0.760000 0.000000 0
0.780000 0.000000 0
0.800000 0.000000 0
0.820000 0.000000 0
0.840000 0.000000 0
0.860000 0.000000 0
0.880000 0.000000 0
0.900000 0.000000 0
0.920000 0.000000 0
0.940000 0.000000 0
0.960000 0.000000 0
0.980000 0.000000 0
1.000000 0.000000 0
0.000000 0.020000 0
0.020000 0.020000 0
0.040000 0.020000 0
0.060000 0.020000 0
0.080000 0.020000 0
0.100000 0.020000 0
0.120000 0.020000 0
0.140000 0.020000 0
0.160000 0.020000 0
0.180000 0.020000 0
0.200000 0.020000 0
0.220000 0.020000 0
0.240000 0.020000 0
0.260000 0.020000 0
0.280000 0.020000 0
0.300000 0.020000 0
0.320000 0.020000 0
0.340000 0.020000 0
0.360000 0.020000 0
0.380000 0.020000 0
0.400000 0.020000 0
0.420000 0.020000 0
0.440000 0.020000 0
0.460000 0.020000 0
0.480000 0.020000 0
0.500000 0.020000 0
0.520000 0.020000 0
0.540000 0.020000 0
0.560000 0.020000 0
0.580000 0.020000 0
0.600000 0.020000 0
0.620000 0.020000 0
0.640000 0.020000 0
0.660000 0.020000 0
0.680000 0.020000 0
0.700000 0.020000 0
0.720000 0.020000 0
0.740000 0.020000 0
0.760000 0.020000 0
0.780000 0.020000 0
0.800000 0.020000 0
0.820000 0.020000 0
0.840000 0.020000 0
0.860000 0.020000 0
0.880000 0.020000 0
0.900000 0.020000 0
0.920000 0.020000 0
0.940000 0.020000 0
0.960000 0.020000 0
0.980000 0.020000 0
1.000000 0.020000 0
0.000000 0.040000 0
0.020000 0.040000 0
0.040000 0.040000 0
0.060000 0.040000 0
0.080000 0.040000 0
0.100000 0.040000 0
0.120000 0.040000 0
0.140000 0.040000 0
0.160000 0.040000 0
0.180000 0.040000 0
0.200000 0.040000 0
0.220000 0.040000 0
0.240000 0.040000 0
0.260000 0.040000 0
0.280000 0.040000 0
0.300000 0.040000 0
0.320000 0.040000 0
0.340000 0.040000 0
0.360000 0.040000 0
0.380000 0.040000 0
0.400000 0.040000 0
0.420000 0.040000 0
0.440000 0.040000 0
0.460000 0.040000 0
0.480000 0.040000 0
0.500000 0.040000 0
0.520000 0.040000 0
0.540000 0.040000 0
0.560000 0.040000 0
0.580000 0.040000 0
0.600000 0.040000 0
0.620000 0.040000 0
0.640000 0.040000 0
0.660000 0.040000 0
0.680000 0.040000 0
0.700000 0.040000 0
0.720000 0.040000 0
0.740000 0.040000 0
0.760000 0.040000 0
0.780000 0.040000 0
0.800000 0.040000 0
0.820000 0.040000 0
0.840000 0.040000 0
0.860000 0.040000 0
0.880000 0.040000 0
0.900000 0.040000 0
0.920000 0.040000 0
0.940000 0.040000 0
0.960000 0.040000 0
0.980000 0.040000 0
1.000000 0.040000 0
0.000000 0.060000 0
0.020000 0.060000 0
0.040000 0.060000 0
0.060000 0.060000 0
0.080000 0.060000 0
0.100000 0.060000 0
0.120000 0.060000 0
0.140000 0.060000 0
0.160000 0.060000 0
0.180000 0.060000 0
0.200000 0.060000 0
0.220000 0.060000 0
0.240000 0.060000 0
0.260000 0.060000 0
0.280000 0.060000 0
0.300000 0.060000 0
0.320000 0.060000 0
0.340000 0.060000 0
0.360000 0.060000 0
0.380000 0.060000 0
0.400000 0.060000 0
0.420000 0.060000 0
0.440000 0.060000 0
0.460000 0.060000 0
0.480000 0.060000 0
0.500000 0.060000 0
0.520000 0.060000 0
0.540000 0.060000 0
0.560000 0.060000 0
0.580000 0.060000 0
0.600000 0.060000 0
0.620000 0.060000 0
0.640000 0.060000 0
0.660000 0.060000 0
0.680000 0.060000 0
0.700000 0.060000 0
0.720000 0.060000 0
0.740000 0.060000 0
0.760000 0.060000 0
0.780000 0.060000 0
0.800000 0.060000 0
0.820000 0.060000 0
0.840000 0.060000 0
0.860000 0.060000 0
0.880000 0.060000 0
0.900000 0.060000 0
0.920000 0.060000 0
0.940000 0.060000 0
0.960000 0.060000 0
0.980000 0.060000 0
1.000000 0.060000 0
0.000000 0.080000 0
0.020000 0.080000 0
0.040000 0.080000 0
0.060000 0.080000 0
0.080000 0.080000 0
0.100000 0.080000 0
0.120000 0.080000 0
0.140000 0.080000 0
0.160000 0.080000 0
0.180000 0.080000 0
0.200000 0.080000 0
0.220000 0.080000 0
0.240000 0.080000 0
0.260000 0.080000 0
0.280000 0.080000 0
0.300000 0.080000 0
0.320000 0.080000 0
0.340000 0.080000 0
0.360000 0.080000 0
0.380000 0.080000 0
0.400000 0.080000 0
0.420000 0.080000 0
0.440000 0.080000 0
0.460000 0.080000 0
0.480000 0.080000 0
0.500000 0.080000 0
0.520000 0.080000 0
0.540000 0.080000 0
0.560000 0.080000 0
0.580000 0.080000 0
0.600000 0.080000 0
0.620000 0.080000 0
0.640000 0.080000 0
0.660000 0.080000 0
0.680000 0.080000 0
0.700000 0.080000 0
0.720000 0.080000 0
0.740000 0.080000 0
0.760000 0.080000 0
0.780000 0.080000 0
0.800000 0.080000 0
0.820000 0.080000 0
0.840000 0.080000 0
0.860000 0.080000 0
0.880000 0.080000 0
0.900000 0.080000 0
0.920000 0.080000 0
0.940000 0.080000 0
0.960000 0.080000 0
0.980000 0.080000 0
1.000000 0.080000 0
0.000000 0.100000 0
0.020000 0.100000 0
0.040000 0.100000 0
0.060000 0.100000 0
0.080000 0.100000 0
0.100000 0.100000 0
0.120000 0.100000 0
0.140000 0.100000 0
0.160000 0.100000 0
0.180000 0.100000 0
0.200000 0.100000 0
0.220000 0.100000 0
0.240000 0.100000 0
0.260000 0.100000 0
0.280000 0.100000 0
0.300000 0.100000 0
0.320000 0.100000 0
0.340000 0.100000 0
0.360000 0.100000 0
0.380000 0.100000 0
0.400000 0.100000 0
0.420000 0.100000 0
0.440000 0.100000 0
0.460000 0.100000 0
0.480000 0.100000 0
0.500000 0.100000 0
0.520000 0.100000 0
0.540000 0.100000 0
0.560000 0.100000 0
0.580000 0.100000 0
0.600000 0.100000 0
0.620000 0.100000 0
0.640000 0.100000 0
0.660000 0.100000 0
0.680000 0.100000 0
0.700000 0.100000 0
0.720000 0.100000 0
0.740000 0.100000 0
0.760000 0.100000 0
0.780000 0.100000 0
0.800000 0.100000 0
0.820000 0.100000 0
0.840000 0.100000 0
0.860000 0.100000 0
0.880000 0.100000 0
0.900000 0.100000 0
0.920000 0.100000 0
0.940000 0.100000 0
0.960000 0.100000 0
0.980000 0.100000 0
1.000000 0.100000 0
0.000000 0.120000 0
0.020000 0.120000 0
0.040000 0.120000 0
0.060000 0.120000 0
0.080000 0.120000 0
0.100000 0.120000 0
0.120000 0.120000 0
0.140000 0.120000 0
0.160000 0.120000 0
0.180000 0.120000 0
0.200000 0.120000 0
0.220000 0.120000 0
0.240000 0.120000 0
0.260000 0.120000 0
0.280000 0.120000 0
0.300000 0.120000 0
0.320000 0.120000 0
0.340000 0.120000 0
0.360000 0.120000 0
0.380000 0.120000 0
0.400000 0.120000 0
0.420000 0.120000 0
0.440000 0.120000 0
0.460000 0.120000 0
0.480000 0.120000 0
0.500000 0.120000 0
0.520000 0.120000 0
0.540000 0.120000 0
0.560000 0.120000 0
0.580000 0.120000 0
0.600000 0.120000 0
0.620000 0.120000 0
0.640000 0.120000 0
0.660000 0.120000 0
0.680000 0.120000 0
0.700000 0.120000 0
0.720000 0.120000 0
0.740000 0.120000 0
0.760000 0.120000 0
0.780000 0.120000 0
0.800000 0.120000 0
0.820000 0.120000 0
0.840000 0.120000 0
0.860000 0.120000 0
0.880000 0.120000 0
0.900000 0.120000 0
0.920000 0.120000 0
0.940000 0.120000 0
0.960000 0.120000 0
0.980000 0.120000 0
1.000000 0.120000 0
0.000000 0.140000 0
0.020000 0.140000 0
0.040000 0.140000 0
0.060000 0.140000 0
0.080000 0.140000 0
0.100000 0.140000 0
0.120000 0.140000 0
0.140000 0.140000 0
0.160000 0.140000 0
0.180000 0.140000 0
0.200000 0.140000 0
0.220000 0.140000 0
0.240000 0.140000 0
0.260000 0.140000 0
0.280000 0.140000 0
0.300000 0.140000 0
0.320000 0.140000 0
0.340000 0.140000 0
0.360000 0.140000 0
0.380000 0.140000 0
0.400000 0.140000 0
0.420000 0.140000 0
0.440000 0.140000 0
0.460000 0.140000 0
0.480000 0.140000 0
0.500000 0.140000 0
0.520000 0.140000 0
0.540000 0.140000 0
0.560000 0.140000 0
0.580000 0.140000 0
0.600000 0.140000 0
0.620000 0.140000 0
0.640000 0.140000 0
0.660000 0.140000 0
0.680000 0.140000 0
0.700000 0.140000 0
0.720000 0.140000 0
0.740000 0.140000 0
0.760000 0.140000 0
0.780000 0.140000 0
0.800000 0.140000 0
0.820000 0.140000 0
0.840000 0.140000 0
0.860000 0.140000 0
0.880000 0.140000 0
0.900000 0.140000 0
0.920000 0.140000 0
0.940000 0.140000 0
0.960000 0.140000 0
0.980000 0.140000 0
1.000000 0.140000 0
0.000000 0.160000 0
0.020000 0.160000 0
0.040000 0.160000 0
0.060000 0.160000 0
0.080000 0.160000 0
0.100000 0.160000 0
0.120000 0.160000 0
0.140000 0.160000 0
0.160000 0.160000 0
0.180000 0.160000 0
0.200000 0.160000 0
0.220000 0.160000 0
0.240000 0.160000 0
0.260000 0.160000 0
0.280000 0.160000 0
0.300000 0.160000 0
0.320000 0.160000 0
0.340000 0.160000 0
0.360000 0.160000 0
0.380000 0.160000 0
0.400000 0.160000 0
0.420000 0.160000 0
0.440000 0.160000 0
0.460000 0.160000 0
0.480000 0.160000 0
0.500000 0.160000 0
0.520000 0.160000 0
0.540000 0.160000 0
0.560000 0.160000 0
0.580000 0.160000 0
0.600000 0.160000 0
0.620000 0.160000 0
0.640000 0.160000 0
0.660000 0.160000 0
0.680000 0.160000 0
0.700000 0.160000 0
0.720000 0.160000 0
0.740000 0.160000 0
0.760000 0.160000 0
0.780000 0.160000 0
0.800000 0.160000 0
0.820000 0.160000 0
0.840000 0.160000 0
0.860000 0.160000 0
0.880000 0.160000 0
0.900000 0.160000 0
0.920000 0.160000 0
0.940000 0.160000 0
0.960000 0.160000 0
0.980000 0.160000 0
1.000000 0.160000 0
0.000000 0.180000 0
0.020000 0.180000 0
0.040000 0.180000 0
0.060000 0.180000 0
0.080000 0.180000 0
0.100000 0.180000 0
0.120000 0.180000 0
0.140000 0.180000 0
0.160000 0.180000 0
0.180000 0.180000 0
0.200000 0.180000 0
0.220000 0.180000 0
0.240000 0.180000 0
0.260000 0.180000 0
0.280000 0.180000 0
0.300000 0.180000 0
0.320000 0.180000 0
0.340000 0.180000 0
0.360000 0.180000 0
0.380000 0.180000 0
0.400000 0.180000 0
0.420000 0.180000 0
0.440000 0.180000 0
0.460000 0.180000 0
0.480000 0.180000 0
0.500000 0.180000 0
0.520000 0.180000 0
0.540000 0.180000 0
0.560000 0.180000 0
0.580000 0.180000 0
0.600000 0.180000 0
0.620000 0.180000 0
[...]
POINT_DATA 2601 

VECTORS velocity float
0.000000 0.000000 0
-0.000000 0.000000 0
-0.000000 0.000000 0
-0.000000 0.000000 0
-0.000001 0.000000 0
-0.000001 0.000000 0
-0.000001 0.000000 0
-0.000001 0.000000 0
-0.000001 0.000000 0
-0.000001 0.000000 0
-0.000001 0.000000 0
-0.000000 0.000000 0
0.000000 0.000000 0
0.000001 0.000000 0
0.000002 0.000000 0
0.000004 0.000000 0
0.000005 0.000000 0
0.000007 0.000000 0
0.000009 0.000000 0
0.000012 0.000000 0
0.000014 0.000000 0
0.000017 0.000000 0
0.000019 0.000000 0
0.000022 0.000000 0
0.000024 0.000000 0
0.000027 0.000000 0
0.000029 0.000000 0
0.000031 0.000000 0
0.000032 0.000000 0
0.000033 0.000000 0
0.000034 0.000000 0
0.000035 0.000000 0
0.000035 0.000000 0
0.000035 0.000000 0
0.000034 0.000000 0
0.000033 0.000000 0
0.000032 0.000000 0
0.000031 0.000000 0
0.000029 0.000000 0
0.000027 0.000000 0
0.000025 0.000000 0
0.000023 0.000000 0
0.000020 0.000000 0
0.000017 0.000000 0
0.000015 0.000000 0
0.000012 0.000000 0
0.000009 0.000000 0
0.000006 0.000000 0
0.000003 0.000000 0
0.000001 0.000000 0
0.000000 0.000000 0
0.000000 0.000000 0
-0.000072 0.000070 0
-0.000283 0.000154 0
-0.000593 0.000207 0
-0.000956 0.000230 0
-0.001337 0.000233 0
-0.001717 0.000226 0
-0.002082 0.000213 0
-0.002426 0.000196 0
-0.002745 0.000176 0
-0.003034 0.000153 0
-0.003290 0.000128 0
-0.003508 0.000100 0
-0.003684 0.000069 0
-0.003815 0.000036 0
-0.003898 0.000001 0
-0.003929 -0.000035 0
-0.003908 -0.000072 0
-0.003832 -0.000109 0
-0.003703 -0.000145 0
-0.003522 -0.000179 0
-0.003291 -0.000210 0
-0.003015 -0.000237 0
-0.002700 -0.000259 0
-0.002351 -0.000275 0
-0.001977 -0.000286 0
-0.001585 -0.000290 0
-0.001184 -0.000289 0
-0.000782 -0.000281 0
-0.000387 -0.000268 0
-0.000006 -0.000249 0
0.000353 -0.000226 0
0.000684 -0.000200 0
0.000983 -0.000170 0
0.001245 -0.000138 0
0.001466 -0.000104 0
0.001644 -0.000069 0
0.001778 -0.000035 0
0.001867 -0.000000 0
0.001912 0.000034 0
0.001913 0.000066 0
0.001873 0.000096 0
0.001794 0.000123 0
0.001680 0.000148 0
0.001531 0.000172 0
0.001350 0.000195 0
0.001133 0.000222 0
0.000873 0.000252 0
0.000564 0.000274 0
0.000231 0.000231 0
0.000000 0.000001 0
0.000000 0.000000 0
-0.000156 0.000281 0
-0.000524 0.000520 0
-0.001033 0.000671 0
-0.001619 0.000743 0
-0.002234 0.000759 0
-0.002850 0.000743 0
-0.003449 0.000708 0
-0.004019 0.000662 0
-0.004554 0.000607 0
-0.005047 0.000543 0
-0.005492 0.000472 0
-0.005884 0.000393 0
-0.006217 0.000306 0
-0.006486 0.000213 0
-0.006684 0.000113 0
-0.006809 0.000009 0
-0.006857 -0.000098 0
-0.006825 -0.000206 0
-0.006714 -0.000312 0
-0.006525 -0.000413 0
-0.006260 -0.000508 0
-0.005925 -0.000592 0
-0.005526 -0.000665 0
-0.005072 -0.000724 0
-0.004573 -0.000767 0
-0.004039 -0.000794 0
-0.003482 -0.000804 0
-0.002912 -0.000798 0
-0.002342 -0.000776 0
-0.001781 -0.000740 0
-0.001239 -0.000691 0
-0.000726 -0.000630 0
-0.000250 -0.000560 0
0.000183 -0.000482 0
0.000568 -0.000399 0
0.000900 -0.000311 0
0.001177 -0.000222 0
0.001398 -0.000133 0
0.001561 -0.000045 0
0.001668 0.000040 0
0.001720 0.000120 0
0.001721 0.000194 0
0.001674 0.000264 0
0.001580 0.000331 0
0.001439 0.000400 0
0.001245 0.000479 0
0.000988 0.000570 0
0.000658 0.000643 0
0.000281 0.000565 0
0.000000 0.000003 0
0.000000 0.000000 0
-0.000213 0.000593 0
-0.000689 0.001031 0
-0.001328 0.001301 0
-0.002054 0.001431 0
-0.002814 0.001464 0
-0.003575 0.001440 0
-0.004317 0.001381 0
-0.005028 0.001300 0
-0.005699 0.001203 0
-0.006324 0.001091 0
-0.006895 0.000965 0
-0.007405 0.000825 0
-0.007849 0.000670 0
-0.008218 0.000503 0
-0.008508 0.000324 0
-0.008712 0.000137 0
-0.008826 -0.000057 0
-0.008847 -0.000252 0
-0.008774 -0.000446 0
-0.008607 -0.000634 0
-0.008349 -0.000810 0
-0.008006 -0.000971 0
-0.007584 -0.001111 0
-0.007092 -0.001228 0
-0.006542 -0.001319 0
-0.005946 -0.001382 0
-0.005316 -0.001416 0
-0.004665 -0.001421 0
-0.004005 -0.001399 0
-0.003350 -0.001351 0
-0.002710 -0.001280 0
-0.002096 -0.001189 0
-0.001516 -0.001079 0
-0.000980 -0.000956 0
-0.000492 -0.000821 0
-0.000058 -0.000678 0
0.000318 -0.000531 0
0.000635 -0.000383 0
0.000891 -0.000236 0
0.001088 -0.000094 0
0.001227 0.000042 0
0.001311 0.000170 0
0.001342 0.000290 0
0.001322 0.000407 0
0.001249 0.000531 0
0.001118 0.000673 0
0.000914 0.000840 0
0.000626 0.000982 0
0.000274 0.000889 0
0.000000 0.000006 0
0.000000 0.000001 0
-0.000246 0.000969 0
-0.000792 0.001635 0
-0.001515 0.002035 0
-0.002329 0.002228 0
-0.003178 0.002279 0
-0.004027 0.002245 0
-0.004858 0.002161 0
-0.005656 0.002044 0
-0.006412 0.001902 0
-0.007120 0.001738 0
-0.007771 0.001553 0
-0.008359 0.001346 0
-0.008875 0.001118 0
-0.009312 0.000871 0
-0.009663 0.000606 0
-0.009922 0.000326 0
-0.010083 0.000036 0
-0.010142 -0.000259 0
-0.010096 -0.000553 0
-0.009945 -0.000839 0
-0.009692 -0.001109 0
-0.009342 -0.001358 0
-0.008902 -0.001579 0
-0.008382 -0.001765 0
-0.007794 -0.001913 0
-0.007151 -0.002020 0
-0.006468 -0.002085 0
-0.005759 -0.002108 0
-0.005038 -0.002091 0
-0.004318 -0.002035 0
-0.003613 -0.001944 0
-0.002932 -0.001823 0
-0.002287 -0.001676 0
-0.001686 -0.001506 0
-0.001135 -0.001320 0
-0.000640 -0.001121 0
-0.000204 -0.000915 0
0.000169 -0.000706 0
0.000481 -0.000498 0
0.000730 -0.000296 0
0.000918 -0.000103 0
0.001049 0.000080 0
0.001125 0.000254 0
0.001148 0.000424 0
0.001117 0.000604 0
0.001024 0.000814 0
0.000856 0.001062 0
0.000598 0.001283 0
0.000266 0.001192 0
0.000000 0.000009 0
0.000000 0.000001 0
-0.000265 0.001384 0
-0.000854 0.002299 0
-0.001631 0.002837 0
-0.002502 0.003093 0
-0.003409 0.003163 0
-0.004316 0.003119 0
-0.005203 0.003008 0
-0.006058 0.002854 0
-0.006870 0.002667 0
-0.007634 0.002450 0
-0.008340 0.002203 0
-0.008980 0.001927 0
-0.009548 0.001623 0
-0.010034 0.001291 0
-0.010430 0.000934 0
-0.010729 0.000556 0
-0.010924 0.000163 0
-0.011008 -0.000240 0
-0.010979 -0.000644 0
-0.010836 -0.001038 0
-0.010579 -0.001414 0
-0.010214 -0.001762 0
-0.009748 -0.002072 0
-0.009193 -0.002337 0
-0.008562 -0.002550 0
-0.007869 -0.002707 0
-0.007131 -0.002808 0
-0.006364 -0.002851 0
-0.005583 -0.002840 0
-0.004804 -0.002776 0
-0.004041 -0.002666 0
-0.003305 -0.002514 0
-0.002608 -0.002325 0
-0.001958 -0.002108 0
-0.001363 -0.001866 0
-0.000829 -0.001608 0
-0.000358 -0.001340 0
0.000046 -0.001067 0
0.000383 -0.000795 0
0.000654 -0.000531 0
0.000861 -0.000277 0
0.001008 -0.000037 0
0.001096 0.000192 0
0.001129 0.000417 0
0.001106 0.000656 0
0.001021 0.000935 0
0.000858 0.001267 0
0.000603 0.001572 0
0.000270 0.001488 0
0.000000 0.000012 0
0.000000 0.000002 0
-0.000278 0.001822 0
-0.000895 0.003000 0
-0.001709 0.003683 0
-0.002620 0.004005 0
-0.003569 0.004093 0
-0.004517 0.004039 0
-0.005446 0.003902 0
-0.006342 0.003711 0
-0.007198 0.003478 0
-0.008004 0.003207 0
-0.008754 0.002899 0
-0.009438 0.002554 0
-0.010049 0.002171 0
-0.010577 0.001752 0
-0.011013 0.001300 0
-0.011348 0.000819 0
-0.011573 0.000315 0
-0.011681 -0.000204 0
-0.011666 -0.000726 0
-0.011525 -0.001240 0
-0.011259 -0.001732 0
-0.010873 -0.002189 0
-0.010375 -0.002599 0
-0.009776 -0.002951 0
-0.009092 -0.003237 0
-0.008339 -0.003451 0
-0.007535 -0.003590 0
-0.006700 -0.003656 0
-0.005852 -0.003650 0
-0.005007 -0.003577 0
-0.004181 -0.003443 0
-0.003388 -0.003256 0
-0.002639 -0.003022 0
-0.001944 -0.002750 0
-0.001311 -0.002449 0
-0.000746 -0.002126 0
-0.000252 -0.001789 0
0.000169 -0.001447 0
0.000517 -0.001106 0
0.000792 -0.000774 0
0.000998 -0.000456 0
0.001139 -0.000154 0
0.001217 0.000132 0
0.001238 0.000414 0
0.001199 0.000713 0
0.001097 0.001063 0
0.000915 0.001480 0
0.000640 0.001872 0
0.000285 0.001795 0
0.000000 0.000015 0
0.000000 0.000002 0
-0.000287 0.002277 0
-0.000927 0.003729 0
-0.001769 0.004561 0
-0.002714 0.004953 0
-0.003696 0.005059 0
-0.004679 0.004996 0
-0.005644 0.004833 0
-0.006577 0.004605 0
-0.007471 0.004328 0
-0.008318 0.004005 0
-0.009109 0.003636 0
-0.009837 0.003222 0
-0.010492 0.002761 0
-0.011064 0.002254 0
-0.011543 0.001704 0
-0.011917 0.001115 0
-0.012177 0.000495 0
-0.012312 -0.000148 0
-0.012314 -0.000800 0
-0.012178 -0.001445 0
-0.011903 -0.002066 0
-0.011493 -0.002647 0
-0.010955 -0.003169 0
-0.010303 -0.003620 0
-0.009554 -0.003987 0
-0.008727 -0.004264 0
-0.007843 -0.004446 0
-0.006926 -0.004534 0
-0.005995 -0.004533 0
-0.005072 -0.004447 0
-0.004172 -0.004285 0
-0.003312 -0.004055 0
-0.002504 -0.003769 0
-0.001760 -0.003435 0
-0.001087 -0.003065 0
-0.000491 -0.002668 0
0.000024 -0.002255 0
0.000456 -0.001835 0
0.000806 -0.001418 0
0.001075 -0.001012 0
0.001268 -0.000623 0
0.001389 -0.000255 0
0.001444 0.000093 0
0.001435 0.000435 0
0.001365 0.000797 0
0.001229 0.001219 0
0.001012 0.001724 0
0.000698 0.002202 0
0.000307 0.002128 0
0.000000 0.000018 0
0.000000 0.000003 0
-0.000296 0.002747 0
-0.000955 0.004481 0
-0.001824 0.005469 0
-0.002799 0.005931 0
-0.003813 0.006058 0
-0.004830 0.005986 0
-0.005830 0.005799 0
-0.006800 0.005537 0
-0.007733 0.005217 0
-0.008622 0.004844 0
-0.009457 0.004417 0
-0.010232 0.003935 0
-0.010937 0.003397 0
-0.011560 0.002803 0
-0.012090 0.002153 0
-0.012513 0.001453 0
-0.012818 0.000709 0
-0.012989 -0.000067 0
-0.013016 -0.000860 0
-0.012892 -0.001651 0
-0.012610 -0.002417 0
-0.012175 -0.003138 0
-0.011592 -0.003789 0
-0.010877 -0.004353 0
-0.010048 -0.004814 0
-0.009131 -0.005161 0
-0.008149 -0.005391 0
-0.007130 -0.005503 0
-0.006098 -0.005504 0
-0.005077 -0.005400 0
-0.004087 -0.005203 0
-0.003146 -0.004923 0
-0.002269 -0.004573 0
-0.001466 -0.004167 0
-0.000747 -0.003717 0
-0.000118 -0.003236 0
0.000418 -0.002736 0
0.000860 -0.002228 0
0.001208 -0.001725 0
0.001465 -0.001236 0
0.001637 -0.000769 0
0.001729 -0.000329 0
0.001748 0.000087 0
0.001700 0.000493 0
0.001586 0.000920 0
0.001403 0.001417 0
0.001136 0.002011 0
0.000773 0.002577 0
0.000335 0.002494 0
0.000000 0.000021 0
0.000000 0.000003 0
-0.000306 0.003231 0
-0.000985 0.005256 0
-0.001880 0.006404 0
-0.002885 0.006941 0
-0.003932 0.007090 0
-0.004984 0.007012 0
-0.006020 0.006802 0
-0.007029 0.006508 0
-0.008004 0.006149 0
-0.008938 0.005728 0
-0.009824 0.005246 0
-0.010652 0.004700 0
-0.011414 0.004088 0
-0.012097 0.003407 0
-0.012689 0.002657 0
-0.013174 0.001842 0
-0.013536 0.000969 0
-0.013758 0.000050 0
-0.013823 -0.000898 0
-0.013720 -0.001851 0
-0.013438 -0.002784 0
-0.012978 -0.003665 0
-0.012346 -0.004467 0
-0.011557 -0.005163 0
-0.010634 -0.005733 0
-0.009605 -0.006163 0
-0.008502 -0.006446 0
-0.007356 -0.006585 0
-0.006199 -0.006585 0
-0.005058 -0.006457 0
-0.003957 -0.006215 0
-0.002918 -0.005873 0
-0.001955 -0.005449 0
-0.001082 -0.004956 0
-0.000309 -0.004412 0
0.000359 -0.003833 0
0.000918 -0.003232 0
0.001367 -0.002624 0
0.001710 -0.002023 0
0.001949 -0.001441 0
0.002092 -0.000886 0
0.002147 -0.000366 0
0.002120 0.000123 0
0.002021 0.000598 0
0.001852 0.001094 0
0.001611 0.001669 0
0.001285 0.002354 0
0.000860 0.003005 0
0.000366 0.002901 0
0.000000 0.000024 0
0.000000 0.000004 0
-0.000315 0.003730 0
-0.001015 0.006055 0
-0.001938 0.007368 0
-0.002975 0.007983 0
-0.004056 0.008156 0
-0.005145 0.008074 0
-0.006220 0.007844 0
-0.007271 0.007521 0
-0.008292 0.007126 0
-0.009276 0.006662 0
-0.010216 0.006130 0
-0.011105 0.005525 0
-0.011933 0.004842 0
-0.012688 0.004078 0
-0.013354 0.003230 0
-0.013916 0.002299 0
-0.014353 0.001292 0
-0.014642 0.000219 0
-0.014763 -0.000899 0
-0.014695 -0.002036 0
-0.014425 -0.003159 0
-0.013945 -0.004230 0
-0.013261 -0.005210 0
-0.012387 -0.006065 0
-0.011351 -0.006765 0
-0.010186 -0.007293 0
-0.008933 -0.007639 0
-0.007630 -0.007806 0
-0.006317 -0.007802 0
-0.005027 -0.007642 0
-0.003790 -0.007343 0
-0.002629 -0.006925 0
-0.001563 -0.006408 0
-0.000607 -0.005813 0
0.000230 -0.005158 0
0.000942 -0.004462 0
0.001527 -0.003744 0
0.001983 -0.003020 0
0.002316 -0.002307 0
0.002531 -0.001618 0
0.002636 -0.000966 0
0.002642 -0.000356 0
0.002559 0.000213 0
0.002398 0.000761 0
0.002163 0.001330 0
0.001852 0.001985 0
0.001455 0.002763 0
0.000959 0.003496 0
0.000402 0.003355 0
0.000000 0.000027 0
0.000000 0.000005 0
-0.000326 0.004245 0
-0.001048 0.006879 0
-0.002000 0.008363 0
-0.003069 0.009058 0
-0.004187 0.009259 0
-0.005314 0.009175 0
-0.006430 0.008928 0
-0.007526 0.008580 0
-0.008596 0.008153 0
-0.009634 0.007652 0
-0.010635 0.007075 0
-0.011591 0.006416 0
-0.012494 0.005670 0
-0.013331 0.004828 0
-0.014087 0.003885 0
-0.014742 0.002840 0
-0.015273 0.001695 0
-0.015653 0.000460 0
-0.015853 -0.000845 0
-0.015843 -0.002189 0
-0.015601 -0.003534 0
-0.015112 -0.004829 0
-0.014376 -0.006025 0
-0.013408 -0.007073 0
-0.012238 -0.007933 0
-0.010908 -0.008581 0
-0.009468 -0.009002 0
-0.007970 -0.009200 0
-0.006462 -0.009188 0
-0.004987 -0.008984 0
-0.003581 -0.008613 0
-0.002272 -0.008100 0
-0.001081 -0.007470 0
-0.000024 -0.006750 0
0.000888 -0.005961 0
0.001650 -0.005128 0
0.002261 -0.004272 0
0.002722 -0.003413 0
0.003038 -0.002570 0
0.003219 -0.001760 0
0.003275 -0.000997 0
0.003221 -0.000289 0
0.003068 0.000368 0
0.002831 0.000995 0
0.002517 0.001640 0
0.002125 0.002377 0
0.001646 0.003248 0
0.001069 0.004059 0
0.000440 0.003861 0
0.000000 0.000030 0
0.000000 0.000006 0
-0.000336 0.004777 0
-0.001081 0.007728 0
-0.002063 0.009390 0
-0.003168 0.010170 0
-0.004324 0.010400 0
-0.005491 0.010316 0
-0.006650 0.010056 0
-0.007793 0.009686 0
-0.008914 0.009233 0
-0.010009 0.008700 0
-0.011075 0.008086 0
-0.012104 0.007383 0
-0.013090 0.006581 0
-0.014020 0.005670 0
-0.014880 0.004640 0
-0.015648 0.003485 0
-0.016297 0.002203 0
-0.016795 0.000798 0
-0.017104 -0.000709 0
-0.017183 -0.002288 0
-0.016997 -0.003890 0
-0.016518 -0.005454 0
-0.015738 -0.006914 0
-0.014668 -0.008203 0
-0.013341 -0.009265 0
-0.011810 -0.010062 0
-0.010139 -0.010577 0
-0.008395 -0.010812 0
-0.006643 -0.010784 0
-0.004936 -0.010522 0
-0.003320 -0.010058 0
-0.001829 -0.009425 0
-0.000487 -0.008655 0
0.000689 -0.007782 0
0.001689 -0.006832 0
0.002507 -0.005834 0
0.003144 -0.004815 0
0.003604 -0.003797 0
0.003895 -0.002803 0
0.004029 -0.001855 0
0.004021 -0.000967 0
0.003890 -0.000149 0
0.003651 0.000603 0
0.003322 0.001313 0
0.002914 0.002037 0
0.002429 0.002856 0
0.001856 0.003820 0
0.001189 0.004702 0
0.000480 0.004424 0
0.000000 0.000033 0
0.000000 0.000007 0
-0.000347 0.005325 0
-0.001115 0.008605 0
-0.002129 0.010450 0
-0.003269 0.011318 0
-0.004464 0.011581 0
-0.005672 0.011500 0
-0.006876 0.011230 0
-0.008066 0.010843 0
-0.009241 0.010368 0
-0.010396 0.009812 0
-0.011529 0.009169 0
-0.012636 0.008431 0
-0.013712 0.007585 0
-0.014746 0.006617 0
-0.015723 0.005512 0
-0.016623 0.004257 0
-0.017417 0.002842 0
-0.018065 0.001266 0
-0.018522 -0.000457 0
-0.018732 -0.002296 0
-0.018642 -0.004198 0
-0.018208 -0.006087 0
-0.017403 -0.007875 0
-0.016230 -0.009470 0
-0.014725 -0.010791 0
-0.012951 -0.011782 0
-0.010992 -0.012416 0
-0.008938 -0.012696 0
-0.006874 -0.012646 0
-0.004874 -0.012306 0
-0.002995 -0.011720 0
-0.001277 -0.010933 0
0.000249 -0.009988 0
0.001567 -0.008925 0
0.002667 -0.007779 0
0.003547 -0.006583 0
0.004207 -0.005368 0
0.004657 -0.004163 0
0.004908 -0.002994 0
0.004977 -0.001886 0
0.004886 -0.000858 0
0.004656 0.000082 0
0.004311 0.000936 0
0.003872 0.001732 0
0.003353 0.002534 0
0.002759 0.003436 0
0.002082 0.004488 0
0.001315 0.005435 0
0.000522 0.005050 0
0.000000 0.000035 0
0.000000 0.000008 0
-0.000357 0.005890 0
-0.001149 0.009510 0
-0.002195 0.011544 0
-0.003372 0.012504 0
-0.004606 0.012802 0
-0.005856 0.012728 0
-0.007104 0.012450 0
-0.008343 0.012050 0
-0.009570 0.011561 0
-0.010785 0.010988 0
-0.011988 0.010326 0
-0.013176 0.009565 0
-0.014347 0.008689 0
-0.015492 0.007681 0
-0.016600 0.006518 0
-0.017651 0.005179 0
-0.018616 0.003645 0
-0.019452 0.001903 0
-0.020104 -0.000043 0
-0.020501 -0.002167 0
-0.020567 -0.004413 0
-0.020230 -0.006694 0
-0.019440 -0.008892 0
-0.018179 -0.010881 0
-0.016479 -0.012545 0
-0.014415 -0.013795 0
-0.012096 -0.014590 0
-0.009646 -0.014929 0
-0.007181 -0.014847 0
-0.004803 -0.014401 0
-0.002587 -0.013654 0
-0.000586 -0.012668 0
0.001167 -0.011499 0
0.002654 -0.010199 0
0.003869 -0.008811 0
0.004812 -0.007374 0
0.005489 -0.005924 0
0.005913 -0.004497 0
0.006104 -0.003124 0
0.006084 -0.001833 0
0.005882 -0.000646 0
0.005527 0.000426 0
0.005050 0.001388 0
0.004478 0.002272 0
0.003830 0.003150 0
0.003113 0.004129 0
0.002319 0.005265 0
0.001444 0.006263 0
0.000563 0.005740 0
0.000000 0.000037 0
0.000000 0.000009 0
-0.000367 0.006473 0
-0.001182 0.010442 0
-0.002260 0.012672 0
-0.003475 0.013729 0
-0.004748 0.014064 0
-0.006039 0.013998 0
-0.007331 0.013716 0
-0.008617 0.013308 0
-0.009897 0.012810 0
-0.011171 0.012229 0
-0.012443 0.011559 0
-0.013712 0.010789 0
-0.014980 0.009900 0
-0.016241 0.008870 0
-0.017489 0.007671 0
-0.018707 0.006273 0
-0.019869 0.004643 0
-0.020932 0.002754 0
-0.021833 0.000591 0
-0.022487 -0.001833 0
-0.022790 -0.004468 0
-0.022635 -0.007214 0
-0.021930 -0.009926 0
-0.020624 -0.012431 0
-0.018730 -0.014555 0
-0.016331 -0.016165 0
-0.013565 -0.017186 0
-0.010603 -0.017611 0
-0.007612 -0.017489 0
-0.004735 -0.016900 0
-0.002079 -0.015936 0
0.000285 -0.014686 0
0.002319 -0.013228 0
0.004010 -0.011627 0
0.005354 -0.009936 0
0.006359 -0.008202 0
0.007039 -0.006469 0
0.007414 -0.004777 0
0.007513 -0.003165 0
0.007369 -0.001664 0
0.007020 -0.000300 0
0.006506 0.000914 0
0.005865 0.001985 0
0.005133 0.002953 0
0.004335 0.003901 0
0.003479 0.004948 0
0.002558 0.006157 0
0.001571 0.007191 0
0.000600 0.006494 0
0.000000 0.000039 0
0.000000 0.000010 0
-0.000377 0.007072 0
-0.001215 0.011402 0
-0.002325 0.013835 0
-0.003576 0.014991 0
-0.004888 0.015366 0
-0.006219 0.015310 0
-0.007553 0.015027 0
-0.008884 0.014615 0
-0.010214 0.014115 0
-0.011546 0.013534 0
-0.012883 0.012867 0
-0.014232 0.012101 0
-0.015595 0.011218 0
-0.016973 0.010189 0
-0.018365 0.008984 0
-0.019762 0.007559 0
-0.021142 0.005870 0
-0.022468 0.003867 0
-0.023675 0.001512 0
-0.024667 -0.001210 0
-0.025313 -0.004265 0
-0.025460 -0.007553 0
-0.024959 -0.010903 0
-0.023698 -0.014081 0
-0.021651 -0.016838 0
-0.018890 -0.018959 0
-0.015584 -0.020317 0
-0.011963 -0.020881 0
-0.008269 -0.020715 0
-0.004716 -0.019934 0
-0.001464 -0.018674 0
0.001382 -0.017066 0
0.003777 -0.015223 0
0.005714 -0.013233 0
0.007202 -0.011159 0
0.008261 -0.009058 0
0.008918 -0.006979 0
0.009208 -0.004971 0
0.009170 -0.003078 0
0.008852 -0.001339 0
0.008308 0.000219 0
0.007589 0.001581 0
0.006746 0.002760 0
0.005824 0.003802 0
0.004852 0.004805 0
0.003843 0.005905 0
0.002789 0.007173 0
0.001686 0.008221 0
0.000630 0.007311 0
0.000000 0.000039 0
0.000000 0.000010 0
-0.000386 0.007687 0
-0.001246 0.012390 0
-0.002387 0.015032 0
-0.003674 0.016291 0
-0.005024 0.016707 0
-0.006394 0.016662 0
-0.007768 0.016380 0
-0.009141 0.015968 0
-0.010517 0.015471 0
-0.011901 0.014898 0
-0.013300 0.014245 0
-0.014722 0.013500 0
-0.016176 0.012641 0
-0.017667 0.011640 0
-0.019202 0.010459 0
-0.020779 0.009050 0
-0.022390 0.007349 0
-0.024005 0.005287 0
-0.025571 0.002790 0
-0.026987 -0.000195 0
-0.028102 -0.003675 0
-0.028712 -0.007568 0
-0.028594 -0.011688 0
-0.027549 -0.015738 0
-0.025465 -0.019364 0
-0.022374 -0.022232 0
-0.018455 -0.024112 0
-0.014005 -0.024925 0
-0.009371 -0.024735 0
-0.004878 -0.023704 0
-0.000785 -0.022033 0
0.002736 -0.019926 0
0.005618 -0.017559 0
0.007867 -0.015051 0
0.009517 -0.012483 0
0.010611 -0.009918 0
0.011203 -0.007415 0
0.011347 -0.005028 0
0.011107 -0.002809 0
0.010549 -0.000801 0
0.009745 0.000964 0
0.008765 0.002475 0
0.007674 0.003750 0
0.006527 0.004847 0
0.005360 0.005882 0
0.004185 0.007012 0
0.002994 0.008314 0
0.001780 0.009350 0
0.000648 0.008181 0
0.000000 0.000039 0
0.000000 0.000011 0
-0.000394 0.008317 0
-0.001276 0.013404 0
-0.002448 0.016262 0
-0.003769 0.017627 0
-0.005155 0.018086 0
-0.006562 0.018053 0
-0.007972 0.017773 0
-0.009383 0.017364 0
-0.010800 0.016874 0
-0.012230 0.016316 0
-0.013684 0.015688 0
-0.015172 0.014977 0
-0.016707 0.014162 0
-0.018302 0.013215 0
-0.019970 0.012095 0
-0.021721 0.010747 0
-0.023560 0.009096 0
-0.025477 0.007048 0
-0.027436 0.004494 0
-0.029351 0.001321 0
-0.031065 -0.002540 0
-0.032334 -0.007061 0
-0.032850 -0.012066 0
-0.032293 -0.017210 0
-0.030420 -0.022012 0
-0.027158 -0.025969 0
-0.022650 -0.028684 0