# vtk DataFile Version 2.0
generated by CFD-lab course output (written by Tobias Neckel) 
ASCII

DATASET STRUCTURED_GRID
DIMENSIONS  51 51 1 
POINTS 2601 float

0.000000 0.000000 0
0.020000 0.000000 0
0.040000 0.000000 0
0.060000 0.000000 0
0.080000 0.000000 0
0.100000 0.000000 0
0.120000 0.000000 0
0.140000 0.000000 0
0.160000 0.000000 0
0.180000 0.000000 0
0.200000 0.000000 0
0.220000 0.000000 0
0.240000 0.000000 0
0.260000 0.000000 0
0.280000 0.000000 0
0.300000 0.000000 0
0.320000 0.000000 0
0.340000 0.000000 0
0.360000 0.000000 0
0.380000 0.000000 0
0.400000 0.000000 0
0.420000 0.000000 0
0.440000 0.000000 0
0.460000 0.000000 0
0.480000 0.000000 0
0.500000 0.000000 0
0.520000 0.000000 0
0.540000 0.000000 0
0.560000 0.000000 0
0.580000 0.000000 0
0.600000 0.000000 0
0.620000 0.000000 0
0.640000 0.000000 0
0.660000 0.000000 0
0.680000 0.000000 0
0.700000 0.000000 0
0.720000 0.000000 0
0.740000 0.000000 0
0.760000 0.000000 0
0.780000 0.000000 0
0.800000 0.000000 0
0.820000 0.000000 0
0.840000 0.000000 0
0.860000 0.000000 0
0.880000 0.000000 0
0.900000 0.000000 0
0.920000 0.000000 0
0.940000 0.000000 0
0.960000 0.000000 0
0.980000 0.000000 0
1.000000 0.000000 0
0.000000 0.020000 0
0.020000 0.020000 0
0.040000 0.020000 0
0.060000 0.020000 0
0.080000 0.020000 0
0.100000 0.020000 0
0.120000 0.020000 0
0.140000 0.020000 0
0.160000 0.020000 0
0.180000 0.020000 0
0.200000 0.020000 0
0.220000 0.020000 0
0.240000 0.020000 0
0.260000 0.020000 0
0.280000 0.020000 0
0.300000 0.020000 0
0.320000 0.020000 0
0.340000 0.020000 0
0.360000 0.020000 0
0.380000 0.020000 0
0.400000 0.020000 0
0.420000 0.020000 0
0.440000 0.020000 0
0.460000 0.020000 0
0.480000 0.020000 0
0.500000 0.020000 0
0.520000 0.020000 0
0.540000 0.020000 0
0.560000 0.020000 0
0.580000 0.020000 0
0.600000 0.020000 0
0.620000 0.020000 0
0.640000 0.020000 0
0.660000 0.020000 0
0.680000 0.020000 0
0.700000 0.020000 0
0.720000 0.020000 0
0.740000 0.020000 0
0.760000 0.020000 0
0.780000 0.020000 0
0.800000 0.020000 0
0.820000 0.020000 0
0.840000 0.020000 0
0.860000 0.020000 0
0.880000 0.020000 0
0.900000 0.020000 0
0.920000 0.020000 0
0.940000 0.020000 0
0.960000 0.020000 0
0.980000 0.020000 0
1.000000 0.020000 0
0.000000 0.040000 0
0.020000 0.040000 0
0.040000 0.040000 0
0.060000 0.040000 0
0.080000 0.040000 0
0.100000 0.040000 0
0.120000 0.040000 0
0.140000 0.040000 0
0.160000 0.040000 0
0.180000 0.040000 0
0.200000 0.040000 0
0.220000 0.040000 0
0.240000 0.040000 0
0.260000 0.040000 0
0.280000 0.040000 0
0.300000 0.040000 0
0.320000 0.040000 0
0.340000 0.040000 0
0.360000 0.040000 0
0.380000 0.040000 0
0.400000 0.040000 0
0.420000 0.040000 0
0.440000 0.040000 0
0.460000 0.040000 0
0.480000 0.040000 0
0.500000 0.040000 0
0.520000 0.040000 0
0.540000 0.040000 0
0.560000 0.040000 0
0.580000 0.040000 0
0.600000 0.040000 0
0.620000 0.040000 0
0.640000 0.040000 0
0.660000 0.040000 0
0.680000 0.040000 0
0.700000 0.040000 0
0.720000 0.040000 0
0.740000 0.040000 0
0.760000 0.040000 0
0.780000 0.040000 0
0.800000 0.040000 0
0.820000 0.040000 0
0.840000 0.040000 0
0.860000 0.040000 0
0.880000 0.040000 0
0.900000 0.040000 0
0.920000 0.040000 0
0.940000 0.040000 0
0.960000 0.040000 0
0.980000 0.040000 0
1.000000 0.040000 0
0.000000 0.060000 0
0.020000 0.060000 0
0.040000 0.060000 0
0.060000 0.060000 0
0.080000 0.060000 0
0.100000 0.060000 0
0.120000 0.060000 0
0.140000 0.060000 0
0.160000 0.060000 0
0.180000 0.060000 0
0.200000 0.060000 0
0.220000 0.060000 0
0.240000 0.060000 0
0.260000 0.060000 0
0.280000 0.060000 0
0.300000 0.060000 0
0.320000 0.060000 0
0.340000 0.060000 0
0.360000 0.060000 0
0.380000 0.060000 0
0.400000 0.060000 0
0.420000 0.060000 0
0.440000 0.060000 0
0.460000 0.060000 0
0.480000 0.060000 0
0.500000 0.060000 0
0.520000 0.060000 0
0.540000 0.060000 0
0.560000 0.060000 0
0.580000 0.060000 0
0.600000 0.060000 0
0.620000 0.060000 0
0.640000 0.060000 0
0.660000 0.060000 0
0.680000 0.060000 0
0.700000 0.060000 0
0.720000 0.060000 0
0.740000 0.060000 0
0.760000 0.060000 0
0.780000 0.060000 0
0.800000 0.060000 0
0.820000 0.060000 0
0.840000 0.060000 0
0.860000 0.060000 0
0.880000 0.060000 0
0.900000 0.060000 0
0.920000 0.060000 0
0.940000 0.060000 0
0.960000 0.060000 0
0.980000 0.060000 0
1.000000 0.060000 0
0.000000 0.080000 0
0.020000 0.080000 0
0.040000 0.080000 0
0.060000 0.080000 0
0.080000 0.080000 0
0.100000 0.080000 0
0.120000 0.080000 0
0.140000 0.080000 0
0.160000 0.080000 0
0.180000 0.080000 0
0.200000 0.080000 0
0.220000 0.080000 0
0.240000 0.080000 0
0.260000 0.080000 0
0.280000 0.080000 0
0.300000 0.080000 0
0.320000 0.080000 0
0.340000 0.080000 0
0.360000 0.080000 0
0.380000 0.080000 0
0.400000 0.080000 0
0.420000 0.080000 0
0.440000 0.080000 0
0.460000 0.080000 0
0.480000 0.080000 0
0.500000 0.080000 0
0.520000 0.080000 0
0.540000 0.080000 0
0.560000 0.080000 0
0.580000 0.080000 0
0.600000 0.080000 0
0.620000 0.080000 0
0.640000 0.080000 0
0.660000 0.080000 0
0.680000 0.080000 0
0.700000 0.080000 0
0.720000 0.080000 0
0.740000 0.080000 0
0.760000 0.080000 0
0.780000 0.080000 0
0.800000 0.080000 0
0.820000 0.080000 0
0.840000 0.080000 0
0.860000 0.080000 0
0.880000 0.080000 0
0.900000 0.080000 0
0.920000 0.080000 0
0.940000 0.080000 0
0.960000 0.080000 0
0.980000 0.080000 0
1.000000 0.080000 0
0.000000 0.100000 0
0.020000 0.100000 0
0.040000 0.100000 0
0.060000 0.100000 0
0.080000 0.100000 0
0.100000 0.100000 0
0.120000 0.100000 0
0.140000 0.100000 0
0.160000 0.100000 0
0.180000 0.100000 0
0.200000 0.100000 0
0.220000 0.100000 0
0.240000 0.100000 0
0.260000 0.100000 0
0.280000 0.100000 0
0.300000 0.100000 0
0.320000 0.100000 0
0.340000 0.100000 0
0.360000 0.100000 0
0.380000 0.100000 0
0.400000 0.100000 0
0.420000 0.100000 0
0.440000 0.100000 0
0.460000 0.100000 0
0.480000 0.100000 0
0.500000 0.100000 0
0.520000 0.100000 0
0.540000 0.100000 0
0.560000 0.100000 0
0.580000 0.100000 0
0.600000 0.100000 0
0.620000 0.100000 0
0.640000 0.100000 0
0.660000 0.100000 0
0.680000 0.100000 0
0.700000 0.100000 0
0.720000 0.100000 0
0.740000 0.100000 0
0.760000 0.100000 0
0.780000 0.100000 0
0.800000 0.100000 0
0.820000 0.100000 0
0.840000 0.100000 0
0.860000 0.100000 0
0.880000 0.100000 0
0.900000 0.100000 0
0.920000 0.100000 0
0.940000 0.100000 0
0.960000 0.100000 0
0.980000 0.100000 0
1.000000 0.100000 0
0.000000 0.120000 0
0.020000 0.120000 0
0.040000 0.120000 0
0.060000 0.120000 0
0.080000 0.120000 0
0.100000 0.120000 0
0.120000 0.120000 0
0.140000 0.120000 0
0.160000 0.120000 0
0.180000 0.120000 0
0.200000 0.120000 0
0.220000 0.120000 0
0.240000 0.120000 0
0.260000 0.120000 0
0.280000 0.120000 0
0.300000 0.120000 0
0.320000 0.120000 0
0.340000 0.120000 0
0.360000 0.120000 0
0.380000 0.120000 0
0.400000 0.120000 0
0.420000 0.120000 0
0.440000 0.120000 0
0.460000 0.120000 0
0.480000 0.120000 0
0.500000 0.120000 0
0.520000 0.120000 0
0.540000 0.120000 0
0.560000 0.120000 0
0.580000 0.120000 0
0.600000 0.120000 0
0.620000 0.120000 0
0.640000 0.120000 0
0.660000 0.120000 0
0.680000 0.120000 0
0.700000 0.120000 0
0.720000 0.120000 0
0.740000 0.120000 0
0.760000 0.120000 0
0.780000 0.120000 0
0.800000 0.120000 0
0.820000 0.120000 0
0.840000 0.120000 0
0.860000 0.120000 0
0.880000 0.120000 0
0.900000 0.120000 0
0.920000 0.120000 0
0.940000 0.120000 0
0.960000 0.120000 0
0.980000 0.120000 0
1.000000 0.120000 0
0.000000 0.140000 0
0.020000 0.140000 0
0.040000 0.140000 0
0.060000 0.140000 0
0.080000 0.140000 0
0.100000 0.140000 0
0.120000 0.140000 0
0.140000 0.140000 0
0.160000 0.140000 0
0.180000 0.140000 0
0.200000 0.140000 0
0.220000 0.140000 0
0.240000 0.140000 0
0.260000 0.140000 0
0.280000 0.140000 0
0.300000 0.140000 0
0.320000 0.140000 0
0.340000 0.140000 0
0.360000 0.140000 0
0.380000 0.140000 0
0.400000 0.140000 0
0.420000 0.140000 0
0.440000 0.140000 0
0.460000 0.140000 0
0.480000 0.140000 0
0.500000 0.140000 0
0.520000 0.140000 0
0.540000 0.140000 0
0.560000 0.140000 0
0.580000 0.140000 0
0.600000 0.140000 0
0.620000 0.140000 0
0.640000 0.140000 0
0.660000 0.140000 0
0.680000 0.140000 0
0.700000 0.140000 0
0.720000 0.140000 0
0.740000 0.140000 0
0.760000 0.140000 0
0.780000 0.140000 0
0.800000 0.140000 0
0.820000 0.140000 0
0.840000 0.140000 0
0.860000 0.140000 0
0.880000 0.140000 0
0.900000 0.140000 0
0.920000 0.140000 0
0.940000 0.140000 0
0.960000 0.140000 0
0.980000 0.140000 0
1.000000 0.140000 0
0.000000 0.160000 0
0.020000 0.160000 0
0.040000 0.160000 0
0.060000 0.160000 0
0.080000 0.160000 0
0.100000 0.160000 0
0.120000 0.160000 0
0.140000 0.160000 0
0.160000 0.160000 0
0.180000 0.160000 0
0.200000 0.160000 0
0.220000 0.160000 0
0.240000 0.160000 0
0.260000 0.160000 0
0.280000 0.160000 0
0.300000 0.160000 0
0.320000 0.160000 0
0.340000 0.160000 0
0.360000 0.160000 0
0.380000 0.160000 0
0.400000 0.160000 0
0.420000 0.160000 0
0.440000 0.160000 0
0.460000 0.160000 0
0.480000 0.160000 0
0.500000 0.160000 0
0.520000 0.160000 0
0.540000 0.160000 0
0.560000 0.160000 0
0.580000 0.160000 0
0.600000 0.160000 0
0.620000 0.160000 0
0.640000 0.160000 0
0.660000 0.160000 0
0.680000 0.160000 0
0.700000 0.160000 0
0.720000 0.160000 0
0.740000 0.160000 0
0.760000 0.160000 0
0.780000 0.160000 0
0.800000 0.160000 0
0.820000 0.160000 0
0.840000 0.160000 0
0.860000 0.160000 0
0.880000 0.160000 0
0.900000 0.160000 0
0.920000 0.160000 0
0.940000 0.160000 0
0.960000 0.160000 0
0.980000 0.160000 0
1.000000 0.160000 0
0.000000 0.180000 0
0.020000 0.180000 0
0.040000 0.180000 0
0.060000 0.180000 0
0.080000 0.180000 0
0.100000 0.180000 0
0.120000 0.180000 0
0.140000 0.180000 0
0.160000 0.180000 0
0.180000 0.180000 0
0.200000 0.180000 0
0.220000 0.180000 0
0.240000 0.180000 0
0.260000 0.180000 0
0.280000 0.180000 0
0.300000 0.180000 0
0.320000 0.180000 0
0.340000 0.180000 0
0.360000 0.180000 0
0.380000 0.180000 0
0.400000 0.180000 0
0.420000 0.180000 0
0.440000 0.180000 0
0.460000 0.180000 0
0.480000 0.180000 0
0.500000 0.180000 0
0.520000 0.180000 0
0.540000 0.180000 0
0.560000 0.180000 0
0.580000 0.180000 0
0.600000 0.180000 0
0.620000 0.180000 0
[...]
POINT_DATA 2601 

VECTORS velocity float
0.000000 0.000000 0
0.000001 0.000000 0
0.000001 0.000000 0
0.000001 0.000000 0
0.000000 0.000000 0
-0.000000 0.000000 0
-0.000001 0.000000 0
-0.000002 0.000000 0
-0.000004 0.000000 0
-0.000007 0.000000 0
-0.000010 0.000000 0
-0.000015 0.000000 0
-0.000020 0.000000 0
-0.000024 0.000000 0
-0.000026 0.000000 0
-0.000026 0.000000 0
-0.000021 0.000000 0
-0.000014 0.000000 0
-0.000005 0.000000 0
0.000004 0.000000 0
0.000009 0.000000 0
0.000013 0.000000 0
0.000015 0.000000 0
0.000015 0.000000 0
0.000013 0.000000 0
0.000011 0.000000 0
0.000008 0.000000 0
0.000006 0.000000 0
0.000004 0.000000 0
0.000002 0.000000 0
0.000001 0.000000 0
0.000001 0.000000 0
0.000001 0.000000 0
0.000001 0.000000 0
0.000001 0.000000 0
0.000001 0.000000 0
0.000001 0.000000 0
0.000001 0.000000 0
0.000001 0.000000 0
0.000001 0.000000 0
0.000001 0.000000 0
0.000001 0.000000 0
0.000001 0.000000 0
0.000001 0.000000 0
0.000000 0.000000 0
0.000000 0.000000 0
0.000000 0.000000 0
0.000000 0.000000 0
0.000000 0.000000 0
-0.000000 0.000000 0
0.000000 0.000000 0
0.000000 -0.000000 0
-0.008776 0.008454 0
-0.024907 0.010937 0
-0.039225 0.008757 0
-0.050356 0.006236 0
-0.058662 0.004082 0
-0.064189 0.002007 0
-0.066789 -0.000223 0
-0.066180 -0.002963 0
-0.061924 -0.006448 0
-0.053523 -0.010663 0
-0.040599 -0.015502 0
-0.022953 -0.020274 0
-0.000697 -0.023803 0
0.025741 -0.025414 0
0.055007 -0.024638 0
0.084833 -0.020593 0
0.112042 -0.013396 0
0.133235 -0.004532 0
0.144478 0.003755 0
0.143771 0.009978 0
0.132996 0.014300 0
0.115573 0.017079 0
0.094338 0.018339 0
0.071941 0.017938 0
0.050716 0.015904 0
0.032464 0.012632 0
0.018234 0.008861 0
0.008254 0.005409 0
0.002018 0.002814 0
-0.001409 0.001197 0
-0.002998 0.000329 0
-0.003492 -0.000118 0
-0.003350 -0.000363 0
-0.002814 -0.000521 0
-0.002019 -0.000629 0
-0.001073 -0.000682 0
-0.000088 -0.000673 0
0.000827 -0.000601 0
0.001583 -0.000477 0
0.002121 -0.000323 0
0.002418 -0.000159 0
0.002478 -0.000007 0
0.002332 0.000120 0
0.002024 0.000214 0
0.001605 0.000271 0
0.001134 0.000285 0
0.000676 0.000253 0
0.000299 0.000175 0
0.000062 0.000067 0
0.000000 -0.000000 0
0.000000 -0.000001 0
-0.013841 0.024906 0
-0.036198 0.030449 0
-0.056378 0.025449 0
-0.072787 0.019436 0
-0.085608 0.013833 0
-0.094759 0.008126 0
-0.100033 0.001990 0
-0.101257 -0.004865 0
-0.098492 -0.012658 0
-0.091764 -0.021326 0
-0.081196 -0.030572 0
-0.066991 -0.039903 0
-0.048970 -0.048695 0
-0.026660 -0.055706 0
0.000031 -0.059095 0
0.031052 -0.057037 0
0.066002 -0.048404 0
0.101706 -0.032437 0
0.132655 -0.010536 0
0.152363 0.011480 0
0.153663 0.028197 0
0.141134 0.038658 0
0.120338 0.043632 0
0.096140 0.043622 0
0.072094 0.039477 0
0.050495 0.032483 0
0.032594 0.024210 0
0.018884 0.016216 0
0.009262 0.009663 0
0.003144 0.005016 0
-0.000279 0.002083 0
-0.001836 0.000352 0
-0.002161 -0.000678 0
-0.001693 -0.001331 0
-0.000746 -0.001741 0
0.000447 -0.001931 0
0.001689 -0.001900 0
0.002812 -0.001671 0
0.003696 -0.001294 0
0.004270 -0.000835 0
0.004510 -0.000357 0
0.004430 0.000085 0
0.004073 0.000454 0
0.003499 0.000728 0
0.002781 0.000890 0
0.002000 0.000928 0
0.001242 0.000836 0
0.000601 0.000614 0
0.000163 0.000299 0
0.000000 0.000000 0
0.000000 -0.000002 0
-0.015566 0.044651 0
-0.040314 0.053474 0
-0.062833 0.045345 0
-0.081229 0.035465 0
-0.095739 0.026054 0
-0.106420 0.016432 0
-0.113260 0.006275 0
-0.116340 -0.004505 0
-0.115972 -0.015941 0
-0.112542 -0.027959 0
-0.106346 -0.040275 0
-0.097639 -0.052501 0
-0.086532 -0.064135 0
-0.073054 -0.074416 0
-0.056645 -0.082351 0
-0.036276 -0.086565 0
-0.010709 -0.084051 0
0.020399 -0.071185 0
0.056892 -0.046901 0
0.094201 -0.011029 0
0.119874 0.025528 0
0.123251 0.050404 0
0.113105 0.063333 0
0.096572 0.066181 0
0.077881 0.061548 0
0.059646 0.052133 0
0.043315 0.040472 0
0.029681 0.028741 0
0.019085 0.018555 0
0.011518 0.010737 0
0.006649 0.005308 0
0.003937 0.001763 0
0.002811 -0.000506 0
0.002773 -0.001935 0
0.003363 -0.002769 0
0.004240 -0.003117 0
0.005152 -0.003037 0
0.005921 -0.002608 0
0.006436 -0.001936 0
0.006641 -0.001137 0
0.006527 -0.000319 0
0.006118 0.000430 0
0.005459 0.001052 0
0.004612 0.001506 0
0.003647 0.001770 0
0.002638 0.001824 0
0.001669 0.001652 0
0.000835 0.001254 0
0.000242 0.000667 0
0.000000 0.000000 0
0.000000 -0.000002 0
-0.015306 0.065221 0
-0.040428 0.077716 0
-0.063699 0.066363 0
-0.082612 0.052341 0
-0.097517 0.039025 0
-0.108751 0.025647 0
-0.116560 0.011910 0
-0.121242 -0.002154 0
-0.123156 -0.016457 0
-0.122784 -0.030952 0
-0.120419 -0.045475 0
-0.116289 -0.059718 0
-0.110550 -0.073281 0
-0.103274 -0.085594 0
-0.094315 -0.095874 0
-0.083381 -0.102974 0
-0.069851 -0.105078 0
-0.051746 -0.100039 0
-0.026610 -0.084339 0
0.005948 -0.051500 0
0.045034 -0.000853 0
0.076844 0.045425 0
0.083058 0.070310 0
0.080167 0.078847 0
0.072087 0.076403 0
0.061598 0.067049 0
0.050328 0.054174 0
0.039507 0.040445 0
0.029951 0.027827 0
0.022246 0.017452 0
0.016624 0.009664 0
0.012956 0.004190 0
0.010863 0.000486 0
0.009903 -0.001883 0
0.009650 -0.003208 0
0.009707 -0.003720 0
0.009808 -0.003581 0
0.009790 -0.002955 0
0.009569 -0.002013 0
0.009119 -0.000925 0
0.008447 0.000167 0
0.007581 0.001153 0
0.006564 0.001960 0
0.005444 0.002540 0
0.004268 0.002864 0
0.003090 0.002906 0
0.001973 0.002638 0
0.001003 0.002041 0
0.000297 0.001134 0
0.000000 0.000000 0
0.000000 -0.000002 0
-0.013801 0.085079 0
-0.037973 0.101867 0
-0.061164 0.087529 0
-0.079999 0.069283 0
-0.094877 0.052193 0
-0.106444 0.035475 0
-0.115155 0.018766 0
-0.121395 0.002091 0
-0.125504 -0.014400 0
-0.127900 -0.030696 0
-0.128903 -0.046771 0
-0.128720 -0.062370 0
-0.127533 -0.077151 0
-0.125476 -0.090652 0
-0.122583 -0.102244 0
-0.118747 -0.111029 0
-0.113554 -0.115686 0
-0.106001 -0.114427 0
-0.094737 -0.104596 0
-0.076911 -0.082674 0
-0.046806 -0.045367 0
-0.003425 0.012381 0
0.032907 0.060009 0
0.050424 0.077152 0
0.056253 0.080117 0
0.056365 0.073891 0
0.052676 0.062564 0
0.046924 0.049117 0
0.040280 0.035815 0
0.033860 0.024064 0
0.028393 0.014598 0
0.024157 0.007525 0
0.021082 0.002547 0
0.018897 -0.000722 0
0.017332 -0.002573 0
0.016109 -0.003275 0
0.014998 -0.003121 0
0.013873 -0.002370 0
0.012682 -0.001265 0
0.011418 -0.000014 0
0.010093 0.001219 0
0.008731 0.002313 0
0.007361 0.003189 0
0.006001 0.003802 0
0.004668 0.004124 0
0.003380 0.004119 0
0.002175 0.003739 0
0.001121 0.002930 0
0.000337 0.001671 0
0.000000 0.000000 0
0.000000 -0.000002 0
-0.011534 0.103193 0
-0.033792 0.125078 0
-0.056412 0.108389 0
-0.074992 0.086055 0
-0.089777 0.065470 0
-0.101687 0.045925 0
-0.111323 0.026861 0
-0.119094 0.008195 0
-0.125301 -0.009952 0
-0.130183 -0.027552 0
-0.134162 -0.044655 0
-0.137433 -0.061089 0
-0.140176 -0.076526 0
-0.142555 -0.090545 0
-0.144690 -0.102603 0
-0.146615 -0.112003 0
-0.148144 -0.117825 0
-0.148659 -0.118856 0
-0.146918 -0.113428 0
-0.140447 -0.099432 0
-0.125298 -0.074339 0
-0.096515 -0.034287 0
-0.045989 0.016462 0
-0.000357 0.055500 0
0.028371 0.070461 0
0.043074 0.070626 0
0.049085 0.063615 0
0.050296 0.052841 0
0.048174 0.040891 0
0.044435 0.029339 0
0.040134 0.019367 0
0.035862 0.011501 0
0.031932 0.005746 0
0.028438 0.001868 0
0.025317 -0.000420 0
0.022498 -0.001386 0
0.019906 -0.001345 0
0.017495 -0.000639 0
0.015245 0.000441 0
0.013147 0.001665 0
0.011201 0.002853 0
0.009409 0.003884 0
0.007763 0.004690 0
0.006244 0.005233 0
0.004832 0.005485 0
0.003510 0.005399 0
0.002285 0.004897 0
0.001201 0.003879 0
0.000371 0.002256 0
0.000000 0.000000 0
0.000000 -0.000001 0
-0.008893 0.118871 0
-0.028501 0.146745 0
-0.050197 0.128729 0
-0.068525 0.102648 0
-0.083269 0.078887 0
-0.095534 0.057021 0
-0.106054 0.036174 0
-0.115251 0.016069 0
-0.123376 -0.003312 0
-0.130546 -0.021835 0
-0.137178 -0.039521 0
-0.143517 -0.056356 0
-0.149718 -0.072030 0
-0.155908 -0.086139 0
-0.162183 -0.098184 0
-0.168577 -0.107574 0
-0.174984 -0.113642 0
-0.181021 -0.115653 0
-0.185809 -0.112808 0
-0.187585 -0.104294 0
-0.183426 -0.089298 0
-0.168885 -0.066930 0
-0.136900 -0.036149 0
-0.087130 0.002793 0
-0.035183 0.036686 0
0.005704 0.053176 0
0.031422 0.055341 0
0.044385 0.050028 0
0.049308 0.041677 0
0.050084 0.032105 0
0.048229 0.023171 0
0.044696 0.015727 0
0.040351 0.009971 0
0.035822 0.005893 0
0.031365 0.003366 0
0.027106 0.002136 0
0.023164 0.001883 0
0.019620 0.002291 0
0.016492 0.003083 0
0.013760 0.004031 0
0.011393 0.004957 0
0.009354 0.005751 0
0.007592 0.006353 0
0.006054 0.006733 0
0.004682 0.006858 0
0.003432 0.006666 0
0.002278 0.006048 0
0.001236 0.004844 0
0.000402 0.002872 0
0.000000 0.000000 0
0.000000 -0.000000 0
-0.006212 0.131694 0
-0.022611 0.166382 0
-0.043038 0.148413 0
-0.061162 0.119126 0
-0.075940 0.092478 0
-0.088523 0.068710 0
-0.099791 0.046578 0
-0.110210 0.025517 0
-0.120038 0.005344 0
-0.129418 -0.013750 0
-0.138423 -0.031685 0
-0.147479 -0.048550 0
-0.156719 -0.064136 0
-0.166205 -0.078079 0
-0.175935 -0.089935 0
-0.185820 -0.099202 0
-0.195651 -0.105380 0
-0.205026 -0.108031 0
-0.213249 -0.106865 0
-0.219194 -0.101814 0
-0.221195 -0.093039 0
-0.216940 -0.080813 0
-0.203386 -0.065294 0
-0.176756 -0.046217 0
-0.134089 -0.022372 0
-0.084986 0.004021 0
-0.038813 0.024933 0
-0.002492 0.034954 0
0.022335 0.035191 0
0.035806 0.030418 0
0.041191 0.024756 0
0.041571 0.019379 0
0.039156 0.014619 0
0.035433 0.010854 0
0.031079 0.008296 0
0.026574 0.006815 0
0.022272 0.006141 0
0.018427 0.006033 0
0.015111 0.006302 0
0.012307 0.006763 0
0.009970 0.007259 0
0.008044 0.007685 0
0.006459 0.007990 0
0.005139 0.008143 0
0.004007 0.008107 0
0.002998 0.007803 0
0.002062 0.007093 0
0.001181 0.005756 0
0.000417 0.003492 0
0.000000 0.000000 0
0.000000 0.000000 0
-0.003758 0.141481 0
-0.016566 0.183570 0
-0.035313 0.167280 0
-0.053240 0.135550 0
-0.068135 0.106249 0
-0.080982 0.080871 0
-0.092827 0.057861 0
-0.104237 0.036316 0
-0.115523 0.015896 0
-0.126849 -0.003451 0
-0.138099 -0.021461 0
-0.149532 -0.038061 0
-0.161375 -0.053303 0
-0.173634 -0.066923 0
-0.186198 -0.078569 0
-0.198831 -0.087858 0
-0.211165 -0.094437 0
-0.222672 -0.098055 0
-0.232675 -0.098640 0
-0.240362 -0.096349 0
-0.244852 -0.091552 0
-0.245245 -0.084738 0
-0.240628 -0.076333 0
-0.229973 -0.066504 0
-0.211888 -0.055084 0
-0.183989 -0.042099 0
-0.146995 -0.027153 0
-0.106590 -0.011120 0
-0.068690 0.003379 0
-0.037596 0.013248 0
-0.014361 0.017406 0
0.001424 0.017762 0
0.010613 0.016110 0
0.014543 0.013970 0
0.015246 0.012225 0
0.014150 0.010944 0
0.012280 0.010030 0
0.010277 0.009451 0
0.008400 0.009204 0
0.006751 0.009172 0
0.005383 0.009220 0
0.004299 0.009262 0
0.003465 0.009258 0
0.002825 0.009185 0
0.002311 0.008998 0
0.001859 0.008611 0
0.001407 0.007865 0
0.000911 0.006489 0
0.000377 0.004053 0
0.000000 0.000000 0
0.000000 0.000001 0
-0.001720 0.148259 0
-0.010757 0.197937 0
-0.027330 0.185086 0
-0.044964 0.151948 0
-0.060064 0.120221 0
-0.073152 0.093402 0
-0.085424 0.069834 0
-0.097588 0.048213 0
-0.110012 0.027955 0
-0.122875 0.008826 0
-0.136206 -0.009002 0
-0.149762 -0.025274 0
-0.163749 -0.040034 0
-0.178207 -0.053257 0
-0.192964 -0.064737 0
-0.207683 -0.074235 0
-0.221889 -0.081539 0
-0.234979 -0.086520 0
-0.246278 -0.089175 0
-0.255114 -0.089637 0
-0.260919 -0.088157 0
-0.263309 -0.085037 0
-0.262113 -0.080565 0
-0.257290 -0.074957 0
-0.248751 -0.068356 0
-0.236185 -0.060873 0
-0.219391 -0.052466 0
-0.197506 -0.043350 0
-0.170987 -0.033802 0
-0.141430 -0.023911 0
-0.112295 -0.014264 0
-0.086029 -0.005595 0
-0.063901 0.001500 0
-0.046381 0.006220 0
-0.033095 0.008689 0
-0.023404 0.009781 0
-0.016655 0.010013 0
-0.012222 0.009913 0
-0.009281 0.009828 0
-0.007214 0.009780 0
-0.005648 0.009711 0
-0.004365 0.009604 0
-0.003260 0.009464 0
-0.002278 0.009297 0
-0.001417 0.009073 0
-0.000692 0.008707 0
-0.000142 0.008041 0
0.000172 0.006786 0
0.000192 0.004403 0
0.000000 0.000000 0
0.000000 0.000002 0
-0.000214 0.152237 0
-0.005504 0.209180 0
-0.019370 0.201487 0
-0.036468 0.168284 0
-0.051847 0.134437 0
-0.065202 0.106232 0
-0.077792 0.082297 0
-0.090483 0.060904 0
-0.103714 0.041183 0
-0.117712 0.022743 0
-0.132569 0.005426 0
-0.148045 -0.010517 0
-0.163834 -0.024858 0
-0.179934 -0.037709 0
-0.196244 -0.049093 0
-0.212422 -0.058933 0
-0.227974 -0.067142 0
-0.242317 -0.073666 0
-0.254829 -0.078505 0
-0.264930 -0.081708 0
-0.272160 -0.083357 0
-0.276230 -0.083543 0
-0.277045 -0.082352 0
-0.274675 -0.079867 0
-0.269296 -0.076190 0
-0.261138 -0.071459 0
-0.250446 -0.065831 0
-0.237297 -0.059524 0
-0.221969 -0.052697 0
-0.204605 -0.045444 0
-0.185335 -0.037996 0
-0.164624 -0.030632 0
-0.143109 -0.023539 0
-0.121702 -0.016836 0
-0.101730 -0.010752 0
-0.083844 -0.005496 0
-0.068356 -0.001152 0
-0.055288 0.002077 0
-0.044396 0.004196 0
-0.035351 0.005539 0
-0.027858 0.006371 0
-0.021667 0.006874 0
-0.016552 0.007171 0
-0.012314 0.007342 0
-0.008747 0.007413 0
-0.005748 0.007337 0
-0.003294 0.007001 0
-0.001429 0.006155 0
-0.000289 0.004225 0
0.000000 -0.000000 0
0.000000 0.000003 0
0.000866 0.153763 0
-0.001087 0.217093 0
-0.011716 0.216051 0
-0.027868 0.184425 0
-0.043542 0.148955 0
-0.057242 0.119347 0
-0.070102 0.095114 0
-0.083160 0.074136 0
-0.096927 0.055184 0
-0.111632 0.037681 0
-0.127361 0.021332 0
-0.144079 0.005991 0
-0.161367 -0.008145 0
-0.178811 -0.020848 0
-0.196136 -0.032250 0
-0.213219 -0.042505 0
-0.229641 -0.051643 0
-0.244925 -0.059664 0
-0.258543 -0.066561 0
-0.269993 -0.072307 0
-0.278858 -0.076857 0
-0.284832 -0.080152 0
-0.287738 -0.082120 0
-0.287529 -0.082706 0
-0.284282 -0.081892 0
-0.278191 -0.079722 0
-0.269552 -0.076307 0
-0.258716 -0.071827 0
-0.246110 -0.066495 0
-0.232076 -0.060545 0
-0.216893 -0.054245 0
-0.200847 -0.047822 0
-0.184209 -0.041422 0
-0.167195 -0.035159 0
-0.149977 -0.029168 0
-0.132813 -0.023593 0
-0.115957 -0.018542 0
-0.099681 -0.014047 0
-0.084425 -0.010110 0
-0.070452 -0.006759 0
-0.057857 -0.003972 0
-0.046643 -0.001701 0
-0.036737 0.000111 0
-0.028046 0.001492 0
-0.020475 0.002508 0
-0.013956 0.003253 0
-0.008481 0.003722 0
-0.004144 0.003782 0
-0.001170 0.002974 0
0.000000 -0.000001 0
0.000000 0.000003 0
0.001709 0.153324 0
0.002357 0.221762 0
-0.004685 0.228267 0
-0.019310 0.200109 0
-0.035172 0.163812 0
-0.049319 0.132792 0
-0.062463 0.108215 0
-0.075785 0.087729 0
-0.089881 0.069655 0
-0.104967 0.053177 0
-0.121087 0.037873 0
-0.138191 0.023490 0
-0.156141 0.009874 0
-0.174476 -0.002940 0
-0.192689 -0.014684 0
-0.210323 -0.025428 0
-0.227213 -0.035435 0
-0.243098 -0.044764 0
-0.257590 -0.053437 0
-0.270271 -0.061392 0
-0.280748 -0.068518 0
-0.288681 -0.074664 0
-0.293801 -0.079655 0
-0.295926 -0.083322 0
-0.294981 -0.085527 0
-0.291009 -0.086189 0
-0.284180 -0.085306 0
-0.274782 -0.082966 0
-0.263205 -0.079337 0
-0.249883 -0.074661 0
-0.235269 -0.069225 0
-0.219807 -0.063316 0
-0.203870 -0.057190 0
-0.187724 -0.051068 0
-0.171546 -0.045134 0
-0.155474 -0.039516 0
-0.139625 -0.034284 0
-0.124117 -0.029455 0
-0.109023 -0.025034 0
-0.094434 -0.021029 0
-0.080447 -0.017438 0
-0.067149 -0.014246 0
-0.054627 -0.011425 0
-0.042964 -0.008920 0
-0.032285 -0.006678 0
-0.022688 -0.004657 0
-0.014295 -0.002811 0
-0.007342 -0.001156 0
-0.002270 0.000081 0
0.000000 -0.000002 0
0.000000 0.000004 0
0.002361 0.151405 0
0.004922 0.223487 0
0.001387 0.237717 0
-0.011002 0.214911 0
-0.026763 0.178964 0
-0.041429 0.146638 0
-0.054911 0.121580 0
-0.068433 0.101555 0
-0.082699 0.084366 0
-0.097916 0.068886 0
-0.114083 0.054556 0
-0.131115 0.041045 0
-0.148874 0.028140 0
-0.167172 0.015700 0
-0.185654 0.003598 0
-0.203725 -0.007980 0
-0.221000 -0.018868 0
-0.237184 -0.029287 0
-0.252231 -0.039388 0
-0.265846 -0.049148 0
-0.277691 -0.058447 0
-0.287411 -0.067099 0
-0.294670 -0.074875 0
-0.299176 -0.081526 0
-0.300710 -0.086809 0
-0.299154 -0.090523 0
-0.294514 -0.092534 0
-0.286932 -0.092802 0
-0.276688 -0.091394 0
-0.264168 -0.088481 0
-0.249843 -0.084321 0
-0.234214 -0.079221 0
-0.217761 -0.073505 0
-0.200900 -0.067482 0
-0.183966 -0.061418 0
-0.167215 -0.055514 0
-0.150821 -0.049900 0
-0.134888 -0.044649 0
-0.119458 -0.039793 0
-0.104551 -0.035335 0
-0.090184 -0.031257 0
-0.076379 -0.027521 0
-0.063177 -0.024075 0
-0.050637 -0.020849 0
-0.038831 -0.017768 0
-0.027884 -0.014737 0
-0.017990 -0.011624 0
-0.009487 -0.008244 0
-0.003034 -0.004368 0
0.000000 -0.000003 0
0.000000 0.000004 0
0.002838 0.148401 0
0.006777 0.222737 0
0.006210 0.244191 0
-0.003173 0.228259 0
-0.018373 0.194238 0
-0.033537 0.160940 0
-0.047430 0.135219 0
-0.061115 0.115517 0
-0.075417 0.099138 0
-0.090569 0.084562 0
-0.106536 0.071073 0
-0.123201 0.058280 0
-0.140418 0.045931 0
-0.158020 0.033840 0
-0.175819 0.021869 0
-0.193640 0.009919 0
-0.211007 -0.001975 0
-0.227506 -0.013533 0
-0.242821 -0.024775 0
-0.256974 -0.035931 0
-0.269783 -0.046952 0
-0.280932 -0.057685 0
-0.290061 -0.067891 0
-0.296810 -0.077282 0
-0.300847 -0.085548 0
-0.301905 -0.092385 0
-0.299820 -0.097528 0
-0.294561 -0.100792 0
-0.286250 -0.102101 0
-0.275162 -0.101505 0
-0.261705 -0.099179 0
-0.246375 -0.095398 0
-0.229705 -0.090504 0
-0.212213 -0.084863 0
-0.194358 -0.078818 0
-0.176516 -0.072661 0
-0.158970 -0.066611 0
-0.141907 -0.060819 0
-0.125438 -0.055371 0
-0.109621 -0.050303 0
-0.094481 -0.045610 0
-0.080028 -0.041252 0
-0.066272 -0.037167 0
-0.053231 -0.033266 0
-0.040947 -0.029431 0
-0.029515 -0.025498 0
-0.019119 -0.021208 0
-0.010114 -0.016112 0
-0.003229 -0.009405 0
0.000000 -0.000003 0
0.000000 0.000004 0
0.003164 0.144628 0
0.008060 0.220116 0
0.009766 0.247666 0
0.003780 0.239495 0
-0.010098 0.209328 0
-0.025598 0.175694 0
-0.039958 0.149158 0
-0.053795 0.129543 0
-0.068026 0.113821 0
-0.082952 0.100006 0
-0.098529 0.087188 0
-0.114617 0.074927 0
-0.131069 0.062959 0
-0.147747 0.051101 0
-0.164530 0.039218 0
-0.181305 0.027208 0
-0.197955 0.014999 0
-0.214247 0.002528 0
-0.229710 -0.009920 0
-0.244086 -0.022187 0
-0.257373 -0.034488 0
-0.269458 -0.046820 0
-0.280023 -0.058997 0
-0.288689 -0.070740 0
-0.295064 -0.081714 0
-0.298767 -0.091549 0
-0.299479 -0.099878 0
-0.296982 -0.106372 0
-0.291210 -0.110792 0
-0.282265 -0.113026 0
-0.270429 -0.113108 0
-0.256133 -0.111220 0
-0.239909 -0.107667 0
-0.222333 -0.102830 0
-0.203965 -0.097115 0
-0.185296 -0.090901 0
-0.166725 -0.084509 0
-0.148543 -0.078181 0
-0.130949 -0.072079 0
-0.114063 -0.066292 0
-0.097953 -0.060849 0
-0.082650 -0.055730 0
-0.068172 -0.050872 0
-0.054536 -0.046174 0
-0.041778 -0.041483 0
-0.029981 -0.036564 0
-0.019318 -0.031024 0
-0.010140 -0.024134 0
-0.003184 -0.014483 0
0.000000 -0.000003 0
0.000000 0.000005 0
0.003364 0.140341 0
0.008885 0.216135 0
0.012264 0.248471 0
0.009367 0.248124 0
-0.002063 0.223617 0
-0.017594 0.190800 0
-0.032421 0.163416 0
-0.046415 0.143585 0
-0.060493 0.128295 0
-0.075062 0.115064 0
-0.090107 0.102738 0
-0.105483 0.090821 0
-0.121044 0.079061 0
-0.136674 0.067301 0
-0.152287 0.055427 0
-0.167821 0.043345 0
-0.183227 0.030967 0
-0.198444 0.018222 0
-0.213410 0.005064 0
-0.227711 -0.008268 0
-0.241067 -0.021579 0
-0.253515 -0.035034 0
-0.264950 -0.048659 0
-0.275039 -0.062241 0
-0.283386 -0.075470 0
-0.289557 -0.087969 0
-0.293113 -0.099312 0
-0.293666 -0.109061 0
-0.290940 -0.116818 0
-0.284823 -0.122286 0
-0.275402 -0.125312 0
-0.262966 -0.125919 0
-0.247978 -0.124304 0
-0.231019 -0.120807 0
-0.212714 -0.115855 0
-0.193663 -0.109901 0
-0.174389 -0.103364 0
-0.155305 -0.096595 0
-0.136717 -0.089851 0
-0.118825 -0.083299 0
-0.101754 -0.077022 0
-0.085575 -0.071033 0
-0.070324 -0.065281 0
-0.056032 -0.059660 0
-0.042739 -0.053986 0
-0.030527 -0.047958 0
-0.019565 -0.041049 0
-0.010202 -0.032246 0
-0.003169 -0.019545 0
0.000000 -0.000003 0
0.000000 0.000005 0
0.003462 0.135743 0
0.009346 0.211216 0
0.013906 0.247184 0
0.013512 0.253822 0
0.005266 0.236290 0
-0.009530 0.206052 0
-0.024734 0.177978 0
-0.038902 0.157614 0
-0.052776 0.142469 0
-0.066891 0.129620 0
-0.081302 0.117609 0
-0.095882 0.105865 0
-0.110488 0.094150 0
-0.125012 0.082344 0
-0.139384 0.070366 0
-0.153572 0.058149 0
-0.167573 0.045622 0
-0.181401 0.032712 0
-0.195074 0.019347 0
-0.208581 0.005471 0
-0.221618 -0.008683 0
-0.233902 -0.022936 0
-0.245567 -0.037473 0
-0.256453 -0.052304 0
-0.266224 -0.067195 0
-0.274460 -0.081822 0