# vtk DataFile Version 2.0
generated by CFD-lab course output (written by Tobias Neckel) 
ASCII

DATASET STRUCTURED_GRID
DIMENSIONS  51 51 1 
POINTS 2601 float

0.000000 0.000000 0
0.020000 0.000000 0
0.040000 0.000000 0
0.060000 0.000000 0
0.080000 0.000000 0
0.100000 0.000000 0
0.120000 0.000000 0
0.140000 0.000000 0
0.160000 0.000000 0
0.180000 0.000000 0
0.200000 0.000000 0
0.220000 0.000000 0
0.240000 0.000000 0
0.260000 0.000000 0
0.280000 0.000000 0
0.300000 0.000000 0
0.320000 0.000000 0
0.340000 0.000000 0
0.360000 0.000000 0
0.380000 0.000000 0
0.400000 0.000000 0
0.420000 0.000000 0
0.440000 0.000000 0
0.460000 0.000000 0
0.480000 0.000000 0
0.500000 0.000000 0
0.520000 0.000000 0
0.540000 0.000000 0
0.560000 0.000000 0
0.580000 0.000000 0
0.600000 0.000000 0
0.620000 0.000000 0
0.640000 0.000000 0
0.660000 0.000000 0
0.680000 0.000000 0
0.700000 0.000000 0
0.720000 0.000000 0
0.740000 0.000000 0
0.760000 0.000000 0
0.780000 0.000000 0
0.800000 0.000000 0
0.820000 0.000000 0
0.840000 0.000000 0
0.860000 0.000000 0
0.880000 0.000000 0
0.900000 0.000000 0
0.920000 0.000000 0
0.940000 0.000000 0
0.960000 0.000000 0
0.980000 0.000000 0
1.000000 0.000000 0
0.000000 0.020000 0
0.020000 0.020000 0
0.040000 0.020000 0
0.060000 0.020000 0
0.080000 0.020000 0
0.100000 0.020000 0
0.120000 0.020000 0
0.140000 0.020000 0
0.160000 0.020000 0
0.180000 0.020000 0
0.200000 0.020000 0
0.220000 0.020000 0
0.240000 0.020000 0
0.260000 0.020000 0
0.280000 0.020000 0
0.300000 0.020000 0
0.320000 0.020000 0
0.340000 0.020000 0
0.360000 0.020000 0
0.380000 0.020000 0
0.400000 0.020000 0
0.420000 0.020000 0
0.440000 0.020000 0
0.460000 0.020000 0
0.480000 0.020000 0
0.500000 0.020000 0
0.520000 0.020000 0
0.540000 0.020000 0
0.560000 0.020000 0
0.580000 0.020000 0
0.600000 0.020000 0
0.620000 0.020000 0
0.640000 0.020000 0
0.660000 0.020000 0
0.680000 0.020000 0
0.700000 0.020000 0
0.720000 0.020000 0
0.740000 0.020000 0
0.760000 0.020000 0
0.780000 0.020000 0
0.800000 0.020000 0
0.820000 0.020000 0
0.840000 0.020000 0
0.860000 0.020000 0
0.880000 0.020000 0
0.900000 0.020000 0
0.920000 0.020000 0
0.940000 0.020000 0
0.960000 0.020000 0
0.980000 0.020000 0
1.000000 0.020000 0
0.000000 0.040000 0
0.020000 0.040000 0
0.040000 0.040000 0
0.060000 0.040000 0
0.080000 0.040000 0
0.100000 0.040000 0
0.120000 0.040000 0
0.140000 0.040000 0
0.160000 0.040000 0
0.180000 0.040000 0
0.200000 0.040000 0
0.220000 0.040000 0
0.240000 0.040000 0
0.260000 0.040000 0
0.280000 0.040000 0
0.300000 0.040000 0
0.320000 0.040000 0
0.340000 0.040000 0
0.360000 0.040000 0
0.380000 0.040000 0
0.400000 0.040000 0
0.420000 0.040000 0
0.440000 0.040000 0
0.460000 0.040000 0
0.480000 0.040000 0
0.500000 0.040000 0
0.520000 0.040000 0
0.540000 0.040000 0
0.560000 0.040000 0
0.580000 0.040000 0
0.600000 0.040000 0
0.620000 0.040000 0
0.640000 0.040000 0
0.660000 0.040000 0
0.680000 0.040000 0
0.700000 0.040000 0
0.720000 0.040000 0
0.740000 0.040000 0
0.760000 0.040000 0
0.780000 0.040000 0
0.800000 0.040000 0
0.820000 0.040000 0
0.840000 0.040000 0
0.860000 0.040000 0
0.880000 0.040000 0
0.900000 0.040000 0
0.920000 0.040000 0
0.940000 0.040000 0
0.960000 0.040000 0
0.980000 0.040000 0
1.000000 0.040000 0
0.000000 0.060000 0
0.020000 0.060000 0
0.040000 0.060000 0
0.060000 0.060000 0
0.080000 0.060000 0
0.100000 0.060000 0
0.120000 0.060000 0
0.140000 0.060000 0
0.160000 0.060000 0
0.180000 0.060000 0
0.200000 0.060000 0
0.220000 0.060000 0
0.240000 0.060000 0
0.260000 0.060000 0
0.280000 0.060000 0
0.300000 0.060000 0
0.320000 0.060000 0
0.340000 0.060000 0
0.360000 0.060000 0
0.380000 0.060000 0
0.400000 0.060000 0
0.420000 0.060000 0
0.440000 0.060000 0
0.460000 0.060000 0
0.480000 0.060000 0
0.500000 0.060000 0
0.520000 0.060000 0
0.540000 0.060000 0
0.560000 0.060000 0
0.580000 0.060000 0
0.600000 0.060000 0
0.620000 0.060000 0
0.640000 0.060000 0
0.660000 0.060000 0
0.680000 0.060000 0
0.700000 0.060000 0
0.720000 0.060000 0
0.740000 0.060000 0
0.760000 0.060000 0
0.780000 0.060000 0
0.800000 0.060000 0
0.820000 0.060000 0
0.840000 0.060000 0
0.860000 0.060000 0
0.880000 0.060000 0
0.900000 0.060000 0
0.920000 0.060000 0
0.940000 0.060000 0
0.960000 0.060000 0
0.980000 0.060000 0
1.000000 0.060000 0
0.000000 0.080000 0
0.020000 0.080000 0
0.040000 0.080000 0
0.060000 0.080000 0
0.080000 0.080000 0
0.100000 0.080000 0
0.120000 0.080000 0
0.140000 0.080000 0
0.160000 0.080000 0
0.180000 0.080000 0
0.200000 0.080000 0
0.220000 0.080000 0
0.240000 0.080000 0
0.260000 0.080000 0
0.280000 0.080000 0
0.300000 0.080000 0
0.320000 0.080000 0
0.340000 0.080000 0
0.360000 0.080000 0
0.380000 0.080000 0
0.400000 0.080000 0
0.420000 0.080000 0
0.440000 0.080000 0
0.460000 0.080000 0
0.480000 0.080000 0
0.500000 0.080000 0
0.520000 0.080000 0
0.540000 0.080000 0
0.560000 0.080000 0
0.580000 0.080000 0
0.600000 0.080000 0
0.620000 0.080000 0
0.640000 0.080000 0
0.660000 0.080000 0
0.680000 0.080000 0
0.700000 0.080000 0
0.720000 0.080000 0
0.740000 0.080000 0
0.760000 0.080000 0
0.780000 0.080000 0
0.800000 0.080000 0
0.820000 0.080000 0
0.840000 0.080000 0
0.860000 0.080000 0
0.880000 0.080000 0
0.900000 0.080000 0
0.920000 0.080000 0
0.940000 0.080000 0
0.960000 0.080000 0
0.980000 0.080000 0
1.000000 0.080000 0
0.000000 0.100000 0
0.020000 0.100000 0
0.040000 0.100000 0
0.060000 0.100000 0
0.080000 0.100000 0
0.100000 0.100000 0
0.120000 0.100000 0
0.140000 0.100000 0
0.160000 0.100000 0
0.180000 0.100000 0
0.200000 0.100000 0
0.220000 0.100000 0
0.240000 0.100000 0
0.260000 0.100000 0
0.280000 0.100000 0
0.300000 0.100000 0
0.320000 0.100000 0
0.340000 0.100000 0
0.360000 0.100000 0
0.380000 0.100000 0
0.400000 0.100000 0
0.420000 0.100000 0
0.440000 0.100000 0
0.460000 0.100000 0
0.480000 0.100000 0
0.500000 0.100000 0
0.520000 0.100000 0
0.540000 0.100000 0
0.560000 0.100000 0
0.580000 0.100000 0
0.600000 0.100000 0
0.620000 0.100000 0
0.640000 0.100000 0
0.660000 0.100000 0
0.680000 0.100000 0
0.700000 0.100000 0
0.720000 0.100000 0
0.740000 0.100000 0
0.760000 0.100000 0
0.780000 0.100000 0
0.800000 0.100000 0
0.820000 0.100000 0
0.840000 0.100000 0
0.860000 0.100000 0
0.880000 0.100000 0
0.900000 0.100000 0
0.920000 0.100000 0
0.940000 0.100000 0
0.960000 0.100000 0
0.980000 0.100000 0
1.000000 0.100000 0
0.000000 0.120000 0
0.020000 0.120000 0
0.040000 0.120000 0
0.060000 0.120000 0
0.080000 0.120000 0
0.100000 0.120000 0
0.120000 0.120000 0
0.140000 0.120000 0
0.160000 0.120000 0
0.180000 0.120000 0
0.200000 0.120000 0
0.220000 0.120000 0
0.240000 0.120000 0
0.260000 0.120000 0
0.280000 0.120000 0
0.300000 0.120000 0
0.320000 0.120000 0
0.340000 0.120000 0
0.360000 0.120000 0
0.380000 0.120000 0
0.400000 0.120000 0
0.420000 0.120000 0
0.440000 0.120000 0
0.460000 0.120000 0
0.480000 0.120000 0
0.500000 0.120000 0
0.520000 0.120000 0
0.540000 0.120000 0
0.560000 0.120000 0
0.580000 0.120000 0
0.600000 0.120000 0
0.620000 0.120000 0
0.640000 0.120000 0
0.660000 0.120000 0
0.680000 0.120000 0
0.700000 0.120000 0
0.720000 0.120000 0
0.740000 0.120000 0
0.760000 0.120000 0
0.780000 0.120000 0
0.800000 0.120000 0
0.820000 0.120000 0
0.840000 0.120000 0
0.860000 0.120000 0
0.880000 0.120000 0
0.900000 0.120000 0
0.920000 0.120000 0
0.940000 0.120000 0
0.960000 0.120000 0
0.980000 0.120000 0
1.000000 0.120000 0
0.000000 0.140000 0
0.020000 0.140000 0
0.040000 0.140000 0
0.060000 0.140000 0
0.080000 0.140000 0
0.100000 0.140000 0
0.120000 0.140000 0
0.140000 0.140000 0
0.160000 0.140000 0
0.180000 0.140000 0
0.200000 0.140000 0
0.220000 0.140000 0
0.240000 0.140000 0
0.260000 0.140000 0
0.280000 0.140000 0
0.300000 0.140000 0
0.320000 0.140000 0
0.340000 0.140000 0
0.360000 0.140000 0
0.380000 0.140000 0
0.400000 0.140000 0
0.420000 0.140000 0
0.440000 0.140000 0
0.460000 0.140000 0
0.480000 0.140000 0
0.500000 0.140000 0
0.520000 0.140000 0
0.540000 0.140000 0
0.560000 0.140000 0
0.580000 0.140000 0
0.600000 0.140000 0
0.620000 0.140000 0
0.640000 0.140000 0
0.660000 0.140000 0
0.680000 0.140000 0
0.700000 0.140000 0
0.720000 0.140000 0
0.740000 0.140000 0
0.760000 0.140000 0
0.780000 0.140000 0
0.800000 0.140000 0
0.820000 0.140000 0
0.840000 0.140000 0
0.860000 0.140000 0
0.880000 0.140000 0
0.900000 0.140000 0
0.920000 0.140000 0
0.940000 0.140000 0
0.960000 0.140000 0
0.980000 0.140000 0
1.000000 0.140000 0
0.000000 0.160000 0
0.020000 0.160000 0
0.040000 0.160000 0
0.060000 0.160000 0
0.080000 0.160000 0
0.100000 0.160000 0
0.120000 0.160000 0
0.140000 0.160000 0
0.160000 0.160000 0
0.180000 0.160000 0
0.200000 0.160000 0
0.220000 0.160000 0
0.240000 0.160000 0
0.260000 0.160000 0
0.280000 0.160000 0
0.300000 0.160000 0
0.320000 0.160000 0
0.340000 0.160000 0
0.360000 0.160000 0
0.380000 0.160000 0
0.400000 0.160000 0
0.420000 0.160000 0
0.440000 0.160000 0
0.460000 0.160000 0
0.480000 0.160000 0
0.500000 0.160000 0
0.520000 0.160000 0
0.540000 0.160000 0
0.560000 0.160000 0
0.580000 0.160000 0
0.600000 0.160000 0
0.620000 0.160000 0
0.640000 0.160000 0
0.660000 0.160000 0
0.680000 0.160000 0
0.700000 0.160000 0
0.720000 0.160000 0
0.740000 0.160000 0
0.760000 0.160000 0
0.780000 0.160000 0
0.800000 0.160000 0
0.820000 0.160000 0
0.840000 0.160000 0
0.860000 0.160000 0
0.880000 0.160000 0
0.900000 0.160000 0
0.920000 0.160000 0
0.940000 0.160000 0
0.960000 0.160000 0
0.980000 0.160000 0
1.000000 0.160000 0
0.000000 0.180000 0
0.020000 0.180000 0
0.040000 0.180000 0
0.060000 0.180000 0
0.080000 0.180000 0
0.100000 0.180000 0
0.120000 0.180000 0
0.140000 0.180000 0
0.160000 0.180000 0
0.180000 0.180000 0
0.200000 0.180000 0
0.220000 0.180000 0
0.240000 0.180000 0
0.260000 0.180000 0
0.280000 0.180000 0
0.300000 0.180000 0
0.320000 0.180000 0
0.340000 0.180000 0
0.360000 0.180000 0
0.380000 0.180000 0
0.400000 0.180000 0
0.420000 0.180000 0
0.440000 0.180000 0
0.460000 0.180000 0
0.480000 0.180000 0
0.500000 0.180000 0
0.520000 0.180000 0
0.540000 0.180000 0
0.560000 0.180000 0
0.580000 0.180000 0
0.600000 0.180000 0
0.620000 0.180000 0
[...]
POINT_DATA 2601 

VECTORS velocity float
0.000000 0.000000 0
-0.000002 0.000000 0
-0.000005 0.000000 0
-0.000008 0.000000 0
-0.000012 0.000000 0
-0.000015 0.000000 0
-0.000018 0.000000 0
-0.000018 0.000000 0
-0.000017 0.000000 0
-0.000013 0.000000 0
-0.000008 0.000000 0
-0.000002 0.000000 0
0.000004 0.000000 0
0.000009 0.000000 0
0.000012 0.000000 0
0.000013 0.000000 0
0.000013 0.000000 0
0.000012 0.000000 0
0.000010 0.000000 0
0.000008 0.000000 0
0.000006 0.000000 0
0.000003 0.000000 0
0.000001 0.000000 0
-0.000001 0.000000 0
-0.000002 0.000000 0
-0.000003 0.000000 0
-0.000003 0.000000 0
-0.000002 0.000000 0
-0.000001 0.000000 0
-0.000000 0.000000 0
-0.000000 0.000000 0
0.000000 0.000000 0
0.000000 0.000000 0
0.000000 0.000000 0
0.000000 0.000000 0
0.000001 0.000000 0
0.000001 0.000000 0
0.000001 0.000000 0
0.000001 0.000000 0
0.000001 0.000000 0
0.000002 0.000000 0
0.000002 0.000000 0
0.000001 0.000000 0
0.000001 0.000000 0
0.000001 0.000000 0
0.000001 0.000000 0
0.000001 0.000000 0
0.000000 0.000000 0
0.000000 0.000000 0
-0.000000 0.000000 0
0.000000 0.000000 0
0.000000 0.000002 0
-0.007589 0.005984 0
-0.017494 0.004744 0
-0.022134 0.000047 0
-0.020919 -0.004715 0
-0.014524 -0.009284 0
-0.003148 -0.013297 0
0.012914 -0.016284 0
0.032781 -0.017857 0
0.054945 -0.017664 0
0.077924 -0.015683 0
0.099670 -0.012151 0
0.118246 -0.007765 0
0.132040 -0.003380 0
0.140085 0.000223 0
0.142251 0.002919 0
0.139280 0.005034 0
0.132349 0.006777 0
0.122320 0.008283 0
0.109843 0.009610 0
0.095478 0.010729 0
0.079800 0.011528 0
0.063473 0.011849 0
0.047256 0.011543 0
0.031958 0.010535 0
0.018360 0.008847 0
0.007157 0.006576 0
-0.001060 0.003966 0
-0.005851 0.001744 0
-0.007998 0.000431 0
-0.008676 -0.000145 0
-0.008719 -0.000289 0
-0.008582 -0.000244 0
-0.008462 -0.000147 0
-0.008415 -0.000061 0
-0.008429 -0.000009 0
-0.008465 0.000004 0
-0.008474 -0.000020 0
-0.008409 -0.000075 0
-0.008227 -0.000154 0
-0.007894 -0.000250 0
-0.007388 -0.000355 0
-0.006704 -0.000458 0
-0.005852 -0.000550 0
-0.004859 -0.000619 0
-0.003773 -0.000654 0
-0.002661 -0.000640 0
-0.001612 -0.000559 0
-0.000740 -0.000394 0
-0.000169 -0.000154 0
0.000000 -0.000000 0
0.000000 0.000005 0
-0.011216 0.017492 0
-0.025649 0.014544 0
-0.034264 0.003423 0
-0.036286 -0.007611 0
-0.032851 -0.017772 0
-0.024447 -0.027440 0
-0.010920 -0.035930 0
0.007602 -0.042031 0
0.031023 -0.045144 0
0.058282 -0.044727 0
0.087802 -0.040323 0
0.117439 -0.032370 0
0.144433 -0.021839 0
0.165850 -0.010212 0
0.179308 0.000805 0
0.183758 0.009902 0
0.179812 0.016960 0
0.169332 0.022506 0
0.153907 0.026843 0
0.134960 0.030044 0
0.113830 0.032004 0
0.091780 0.032544 0
0.069963 0.031516 0
0.049392 0.028896 0
0.030909 0.024801 0
0.015202 0.019421 0
0.002833 0.013008 0
-0.005677 0.006938 0
-0.010282 0.002825 0
-0.012439 0.000721 0
-0.013329 -0.000094 0
-0.013675 -0.000256 0
-0.013843 -0.000167 0
-0.013982 -0.000033 0
-0.014123 0.000050 0
-0.014240 0.000045 0
-0.014278 -0.000056 0
-0.014176 -0.000247 0
-0.013870 -0.000515 0
-0.013311 -0.000838 0
-0.012468 -0.001189 0
-0.011334 -0.001536 0
-0.009926 -0.001845 0
-0.008294 -0.002079 0
-0.006513 -0.002198 0
-0.004690 -0.002160 0
-0.002960 -0.001921 0
-0.001482 -0.001443 0
-0.000432 -0.000740 0
0.000000 0.000000 0
0.000000 0.000008 0
-0.012321 0.031631 0
-0.029173 0.027792 0
-0.040958 0.010684 0
-0.046636 -0.006129 0
-0.047293 -0.021124 0
-0.043703 -0.035228 0
-0.036003 -0.048333 0
-0.023927 -0.059800 0
-0.006918 -0.068344 0
0.014994 -0.072463 0
0.041731 -0.071308 0
0.071880 -0.064395 0
0.103458 -0.051792 0
0.133352 -0.034652 0
0.158225 -0.014989 0
0.174731 0.004531 0
0.180469 0.021202 0
0.176371 0.034187 0
0.164442 0.043982 0
0.146880 0.050805 0
0.125835 0.054709 0
0.103215 0.055715 0
0.080579 0.053930 0
0.059099 0.049589 0
0.039617 0.043037 0
0.022710 0.034653 0
0.008751 0.024846 0
-0.002064 0.014859 0
-0.009001 0.007193 0
-0.012778 0.002902 0
-0.014735 0.000947 0
-0.015768 0.000269 0
-0.016378 0.000160 0
-0.016800 0.000219 0
-0.017118 0.000249 0
-0.017334 0.000159 0
-0.017405 -0.000084 0
-0.017271 -0.000483 0
-0.016870 -0.001018 0
-0.016152 -0.001652 0
-0.015090 -0.002332 0
-0.013683 -0.003000 0
-0.011964 -0.003590 0
-0.009994 -0.004033 0
-0.007868 -0.004258 0
-0.005707 -0.004193 0
-0.003656 -0.003767 0
-0.001882 -0.002922 0
-0.000579 -0.001636 0
0.000000 0.000001 0
0.000000 0.000010 0
-0.011895 0.046664 0
-0.029750 0.043181 0
-0.043750 0.020886 0
-0.052155 -0.001276 0
-0.055817 -0.020705 0
-0.055698 -0.038730 0
-0.052031 -0.055706 0
-0.044789 -0.071117 0
-0.033900 -0.084065 0
-0.018828 -0.093376 0
0.000949 -0.097209 0
0.025483 -0.094097 0
0.054018 -0.083311 0
0.084414 -0.064979 0
0.113943 -0.040575 0
0.138663 -0.012343 0
0.155004 0.015320 0
0.159523 0.038533 0
0.154270 0.056333 0
0.141680 0.068651 0
0.124331 0.075670 0
0.104524 0.077800 0
0.084070 0.075632 0
0.064258 0.069858 0
0.045943 0.061190 0
0.029643 0.050287 0
0.015614 0.037781 0
0.003921 0.024689 0
-0.005022 0.013539 0
-0.010523 0.006455 0
-0.013639 0.002897 0
-0.015413 0.001387 0
-0.016480 0.000865 0
-0.017177 0.000708 0
-0.017647 0.000584 0
-0.017928 0.000332 0
-0.018000 -0.000118 0
-0.017813 -0.000782 0
-0.017321 -0.001635 0
-0.016486 -0.002619 0
-0.015297 -0.003658 0
-0.013770 -0.004662 0
-0.011951 -0.005534 0
-0.009915 -0.006174 0
-0.007759 -0.006486 0
-0.005602 -0.006373 0
-0.003579 -0.005746 0
-0.001841 -0.004520 0
-0.000566 -0.002621 0
0.000000 0.000001 0
0.000000 0.000011 0
-0.010483 0.061381 0
-0.028219 0.059647 0
-0.043610 0.033088 0
-0.053900 0.005938 0
-0.059787 -0.017580 0
-0.062281 -0.039015 0
-0.061851 -0.059243 0
-0.058552 -0.077932 0
-0.052315 -0.094305 0
-0.042907 -0.107312 0
-0.030037 -0.115619 0
-0.012921 -0.117464 0
0.008655 -0.110723 0
0.034615 -0.094577 0
0.063009 -0.069239 0
0.090438 -0.036531 0
0.113631 0.000342 0
0.126329 0.034921 0
0.128723 0.061824 0
0.123122 0.080743 0
0.112068 0.091865 0
0.097748 0.095977 0
0.081893 0.094196 0
0.065767 0.087715 0
0.050240 0.077652 0
0.035851 0.064981 0
0.022863 0.050568 0
0.011347 0.035496 0
0.001437 0.021637 0
-0.005868 0.011519 0
-0.010327 0.005836 0
-0.012941 0.003110 0
-0.014487 0.001923 0
-0.015437 0.001387 0
-0.016013 0.001001 0
-0.016307 0.000511 0
-0.016332 -0.000199 0
-0.016067 -0.001162 0
-0.015490 -0.002346 0
-0.014589 -0.003676 0
-0.013376 -0.005048 0
-0.011884 -0.006345 0
-0.010172 -0.007445 0
-0.008316 -0.008225 0
-0.006409 -0.008570 0
-0.004552 -0.008372 0
-0.002854 -0.007528 0
-0.001434 -0.005935 0
-0.000425 -0.003477 0
0.000000 0.000002 0
0.000000 0.000011 0
-0.008462 0.074883 0
-0.025145 0.076307 0
-0.041279 0.046567 0
-0.052915 0.014901 0
-0.060515 -0.012325 0
-0.065045 -0.036667 0
-0.067321 -0.059435 0
-0.067509 -0.080653 0
-0.065574 -0.099711 0
-0.061301 -0.115653 0
-0.054372 -0.127195 0
-0.044359 -0.132789 0
-0.030638 -0.130847 0
-0.012338 -0.119334 0
0.010179 -0.096399 0
0.036162 -0.062966 0
0.062319 -0.020572 0
0.082628 0.023441 0
0.092063 0.059539 0
0.094082 0.085306 0
0.090893 0.101044 0
0.083964 0.107974 0
0.074565 0.107613 0
0.063745 0.101511 0
0.052347 0.091106 0
0.040964 0.077664 0
0.029946 0.062285 0
0.019457 0.046115 0
0.009707 0.030755 0
0.001316 0.018219 0
-0.004671 0.009969 0
-0.008373 0.005547 0
-0.010532 0.003361 0
-0.011786 0.002234 0
-0.012473 0.001454 0
-0.012761 0.000650 0
-0.012724 -0.000358 0
-0.012387 -0.001623 0
-0.011767 -0.003113 0
-0.010885 -0.004733 0
-0.009775 -0.006363 0
-0.008488 -0.007865 0
-0.007086 -0.009101 0
-0.005635 -0.009937 0
-0.004207 -0.010250 0
-0.002878 -0.009928 0
-0.001721 -0.008863 0
-0.000811 -0.006949 0
-0.000216 -0.004056 0
0.000000 0.000002 0
0.000000 0.000011 0
-0.006151 0.086525 0
-0.020997 0.092463 0
-0.037351 0.060858 0
-0.050033 0.025174 0
-0.058899 -0.005451 0
-0.065021 -0.032209 0
-0.069503 -0.056779 0
-0.072679 -0.079680 0
-0.074624 -0.100513 0
-0.075205 -0.118515 0
-0.074080 -0.132561 0
-0.070696 -0.141198 0
-0.064364 -0.142745 0
-0.054455 -0.135395 0
-0.040002 -0.117740 0
-0.020248 -0.088671 0
0.003340 -0.046124 0
0.028946 0.005177 0
0.047971 0.050370 0
0.057806 0.081913 0
0.063063 0.101982 0
0.064415 0.112305 0
0.062553 0.114415 0
0.058147 0.109933 0
0.051926 0.100433 0
0.044491 0.087383 0
0.036294 0.072075 0
0.027641 0.055735 0
0.018844 0.039778 0
0.010495 0.025896 0
0.003484 0.015525 0
-0.001440 0.008971 0
-0.004506 0.005337 0
-0.006257 0.003328 0
-0.007164 0.001976 0
-0.007519 0.000762 0
-0.007479 -0.000573 0
-0.007142 -0.002119 0
-0.006575 -0.003849 0
-0.005838 -0.005668 0
-0.004989 -0.007444 0
-0.004086 -0.009034 0
-0.003181 -0.010298 0
-0.002321 -0.011103 0
-0.001547 -0.011328 0
-0.000898 -0.010859 0
-0.000411 -0.009595 0
-0.000110 -0.007439 0
0.000008 -0.004288 0
0.000000 0.000002 0
0.000000 0.000011 0
-0.003832 0.095879 0
-0.016177 0.107507 0
-0.032222 0.075603 0
-0.045746 0.036449 0
-0.055605 0.002662 0
-0.063052 -0.026062 0
-0.069305 -0.051778 0
-0.074956 -0.075533 0
-0.080224 -0.097185 0
-0.085109 -0.116197 0
-0.089365 -0.131704 0
-0.092456 -0.142506 0
-0.093544 -0.147089 0
-0.091566 -0.143696 0
-0.085308 -0.130606 0
-0.073905 -0.106308 0
-0.056653 -0.069766 0
-0.031812 -0.021190 0
-0.003432 0.030679 0
0.016662 0.070214 0
0.031278 0.094435 0
0.040820 0.108484 0
0.046645 0.113879 0
0.049093 0.112138 0
0.048692 0.104764 0
0.045934 0.093297 0
0.041315 0.079134 0
0.035257 0.063564 0
0.028189 0.047901 0
0.020693 0.033579 0
0.013619 0.021905 0
0.007855 0.013537 0
0.003801 0.008178 0
0.001305 0.004891 0
-0.000069 0.002716 0
-0.000697 0.000966 0
-0.000835 -0.000734 0
-0.000657 -0.002528 0
-0.000306 -0.004417 0
0.000115 -0.006319 0
0.000527 -0.008115 0
0.000875 -0.009673 0
0.001124 -0.010866 0
0.001258 -0.011572 0
0.001270 -0.011674 0
0.001157 -0.011064 0
0.000919 -0.009651 0
0.000582 -0.007367 0
0.000220 -0.004165 0
0.000000 0.000003 0
0.000000 0.000010 0
-0.001745 0.102702 0
-0.011059 0.120853 0
-0.026190 0.090427 0
-0.040389 0.048557 0
-0.051188 0.011856 0
-0.059850 -0.018509 0
-0.067510 -0.044876 0
-0.075180 -0.068761 0
-0.083201 -0.090361 0
-0.091690 -0.109373 0
-0.100531 -0.125214 0
-0.109310 -0.137019 0
-0.117242 -0.143635 0
-0.123124 -0.143632 0
-0.125344 -0.135402 0
-0.122081 -0.117326 0
-0.111432 -0.088217 0
-0.091697 -0.048046 0
-0.061967 0.001897 0
-0.029259 0.047205 0
-0.004541 0.077823 0
0.014149 0.096937 0
0.027834 0.106143 0
0.036996 0.107886 0
0.042592 0.103591 0
0.044931 0.094760 0
0.044473 0.082753 0
0.041677 0.068861 0
0.037057 0.054342 0
0.031185 0.040466 0
0.024836 0.028363 0
0.018948 0.018788 0
0.014244 0.011886 0
0.010940 0.007198 0
0.008855 0.003979 0
0.007661 0.001528 0
0.007052 -0.000613 0
0.006803 -0.002647 0
0.006699 -0.004621 0
0.006594 -0.006501 0
0.006390 -0.008203 0
0.006036 -0.009631 0
0.005519 -0.010682 0
0.004850 -0.011250 0
0.004051 -0.011226 0
0.003151 -0.010508 0
0.002186 -0.009020 0
0.001224 -0.006740 0
0.000408 -0.003706 0
0.000000 0.000003 0
0.000000 0.000010 0
-0.000091 0.106937 0
-0.006010 0.131952 0
-0.019549 0.104934 0
-0.034248 0.061447 0
-0.046061 0.022123 0
-0.055796 -0.009741 0
-0.064672 -0.036447 0
-0.074029 -0.059842 0
-0.084321 -0.080676 0
-0.095731 -0.098867 0
-0.108230 -0.114084 0
-0.121525 -0.125796 0
-0.134973 -0.133275 0
-0.147479 -0.135594 0
-0.157401 -0.131650 0
-0.162524 -0.120220 0
-0.160136 -0.100150 0
-0.147439 -0.070655 0
-0.122380 -0.031759 0
-0.084308 0.012787 0
-0.046681 0.051027 0
-0.017025 0.076109 0
0.005762 0.091032 0
0.022278 0.097380 0
0.033809 0.096828 0
0.041328 0.091415 0
0.045376 0.082389 0
0.046349 0.070980 0
0.044802 0.058392 0
0.041234 0.045800 0
0.036334 0.034141 0
0.031045 0.024130 0
0.026214 0.016186 0
0.022316 0.010280 0
0.019439 0.005996 0
0.017430 0.002768 0
0.016038 0.000124 0
0.015016 -0.002175 0
0.014166 -0.004208 0
0.013299 -0.006009 0
0.012303 -0.007557 0
0.011130 -0.008802 0
0.009778 -0.009679 0
0.008275 -0.010103 0
0.006665 -0.009975 0
0.004999 -0.009199 0
0.003339 -0.007724 0
0.001794 -0.005589 0
0.000568 -0.002941 0
0.000000 0.000003 0
0.000000 0.000009 0
0.001146 0.108711 0
-0.001415 0.140312 0
-0.012617 0.118665 0
-0.027465 0.075068 0
-0.040303 0.033404 0
-0.050987 0.000102 0
-0.061139 -0.026643 0
-0.071980 -0.049111 0
-0.084174 -0.068659 0
-0.097925 -0.085465 0
-0.113213 -0.099421 0
-0.129792 -0.110276 0
-0.147133 -0.117680 0
-0.164331 -0.121204 0
-0.180001 -0.120357 0
-0.192180 -0.114591 0
-0.198290 -0.103302 0
-0.195279 -0.085800 0
-0.180009 -0.061235 0
-0.150008 -0.028495 0
-0.106926 0.010541 0
-0.061834 0.044493 0
-0.024713 0.066839 0
0.002754 0.079839 0
0.022354 0.084542 0
0.035208 0.083193 0
0.043871 0.077732 0
0.048881 0.069435 0
0.050890 0.059456 0
0.050161 0.048935 0
0.047269 0.038554 0
0.043227 0.028908 0
0.038871 0.020614 0
0.034753 0.013972 0
0.031166 0.008864 0
0.028207 0.004929 0
0.025797 0.001801 0
0.023730 -0.000775 0
0.021833 -0.002904 0
0.019966 -0.004638 0
0.018012 -0.006034 0
0.015922 -0.007105 0
0.013698 -0.007827 0
0.011371 -0.008137 0
0.008990 -0.007950 0
0.006618 -0.007182 0
0.004334 -0.005816 0
0.002276 -0.003968 0
0.000697 -0.001912 0
0.000000 0.000003 0
0.000000 0.000009 0
0.002107 0.108351 0
0.002382 0.145714 0
-0.005755 0.130984 0
-0.020168 0.089133 0
-0.033944 0.045645 0
-0.045622 0.011095 0
-0.057135 -0.015455 0
-0.069313 -0.036807 0
-0.083119 -0.054731 0
-0.098742 -0.069828 0
-0.116101 -0.082217 0
-0.134909 -0.091876 0
-0.154663 -0.098736 0
-0.174608 -0.102726 0
-0.193680 -0.103801 0
-0.210462 -0.101932 0
-0.223153 -0.097052 0
-0.229567 -0.088936 0
-0.227153 -0.077030 0
-0.213020 -0.060296 0
-0.183935 -0.037146 0
-0.139650 -0.006104 0
-0.089404 0.026443 0
-0.041258 0.050313 0
-0.003154 0.064375 0
0.022972 0.069899 0
0.038958 0.068715 0
0.048797 0.063960 0
0.054899 0.057113 0
0.057331 0.049421 0
0.056728 0.041076 0
0.054438 0.032528 0
0.051098 0.024659 0
0.047139 0.017986 0
0.043002 0.012542 0
0.039098 0.008137 0
0.035582 0.004600 0
0.032363 0.001789 0
0.029272 -0.000444 0
0.026222 -0.002188 0
0.023177 -0.003512 0
0.020120 -0.004488 0
0.017039 -0.005129 0
0.013947 -0.005396 0
0.010885 -0.005221 0
0.007913 -0.004542 0
0.005119 -0.003382 0
0.002652 -0.001952 0
0.000797 -0.000665 0
0.000000 0.000002 0
0.000000 0.000009 0
0.002819 0.106328 0
0.005225 0.148173 0
0.000607 0.141215 0
-0.012624 0.103257 0
-0.027173 0.058857 0
-0.039855 0.023293 0
-0.052420 -0.002952 0
-0.066042 -0.023128 0
-0.081279 -0.039230 0
-0.098403 -0.052482 0
-0.117267 -0.063255 0
-0.137497 -0.071715 0
-0.158570 -0.077981 0
-0.179818 -0.082187 0
-0.200421 -0.084503 0
-0.219434 -0.085118 0
-0.235795 -0.084198 0
-0.248315 -0.081800 0
-0.255614 -0.077782 0
-0.255961 -0.071713 0
-0.247073 -0.062830 0
-0.225906 -0.050037 0
-0.189133 -0.031552 0
-0.140725 -0.006411 0
-0.088134 0.020312 0
-0.037518 0.041081 0
0.003773 0.051907 0
0.032432 0.053493 0
0.049606 0.050921 0
0.058385 0.047106 0
0.061447 0.041446 0
0.062037 0.034538 0
0.060480 0.027914 0
0.057130 0.022068 0
0.052735 0.016905 0
0.048154 0.012350 0
0.043739 0.008537 0
0.039469 0.005535 0
0.035273 0.003237 0
0.031136 0.001457 0
0.027112 0.000067 0
0.023203 -0.000967 0
0.019391 -0.001653 0
0.015683 -0.001983 0
0.012111 -0.001916 0
0.008723 -0.001416 0
0.005600 -0.000554 0
0.002891 0.000353 0
0.000874 0.000740 0
0.000000 0.000002 0
0.000000 0.000009 0
0.003294 0.103126 0
0.007208 0.147926 0
0.005832 0.148833 0
-0.005093 0.116913 0
-0.020135 0.072876 0
-0.033742 0.036341 0
-0.046989 0.010732 0
-0.061917 -0.007948 0
-0.078589 -0.022369 0
-0.096921 -0.033840 0
-0.116844 -0.043124 0
-0.137904 -0.050573 0
-0.159569 -0.056415 0
-0.181254 -0.060875 0
-0.202312 -0.064184 0
-0.222096 -0.066558 0
-0.239985 -0.068170 0
-0.255381 -0.069116 0
-0.267662 -0.069384 0
-0.276108 -0.068837 0
-0.279762 -0.067201 0
-0.277293 -0.064045 0
-0.266861 -0.058737 0
-0.245601 -0.050686 0
-0.210998 -0.038832 0
-0.165682 -0.022007 0
-0.115037 -0.001236 0
-0.065718 0.018127 0
-0.023146 0.031161 0
0.011009 0.037580 0
0.035362 0.037424 0
0.048910 0.033495 0
0.054916 0.029566 0
0.055720 0.025732 0
0.053449 0.021518 0
0.050037 0.017133 0
0.046083 0.013286 0
0.041682 0.010255 0
0.037063 0.007889 0
0.032474 0.005973 0
0.028069 0.004421 0
0.023834 0.003233 0
0.019756 0.002391 0
0.015850 0.001884 0
0.012153 0.001739 0
0.008710 0.001969 0
0.005592 0.002450 0
0.002921 0.002774 0
0.000917 0.002226 0
0.000000 0.000002 0
0.000000 0.000009 0
0.003571 0.099120 0
0.008482 0.145635 0
0.009542 0.153517 0
0.001928 0.129224 0
-0.013011 0.087506 0
-0.027509 0.050147 0
-0.041367 0.025223 0
-0.056834 0.008472 0
-0.074535 -0.004226 0
-0.094039 -0.014228 0
-0.114738 -0.022272 0
-0.136215 -0.028989 0
-0.158014 -0.034630 0
-0.179677 -0.039445 0
-0.200690 -0.043661 0
-0.220598 -0.047444 0
-0.239017 -0.050913 0
-0.255613 -0.054123 0
-0.270063 -0.057054 0
-0.282037 -0.059614 0
-0.291157 -0.061644 0
-0.296957 -0.062938 0
-0.298812 -0.063243 0
-0.295843 -0.062274 0
-0.287062 -0.059607 0
-0.270764 -0.054879 0
-0.244967 -0.048057 0
-0.209134 -0.038398 0
-0.166923 -0.025805 0
-0.122776 -0.011403 0
-0.080492 0.003545 0
-0.044542 0.014985 0
-0.015754 0.021104 0
0.005804 0.023535 0
0.020144 0.022589 0
0.027473 0.019716 0
0.030084 0.016892 0
0.029790 0.014555 0
0.027897 0.012445 0
0.025235 0.010452 0
0.022317 0.008707 0
0.019236 0.007345 0
0.016087 0.006331 0
0.012972 0.005621 0
0.009982 0.005225 0
0.007196 0.005145 0
0.004686 0.005234 0
0.002531 0.005027 0
0.000858 0.003661 0
0.000000 0.000001 0
0.000000 0.000009 0
0.003681 0.094644 0
0.009161 0.141954 0
0.011921 0.155387 0
0.007563 0.139467 0
-0.006021 0.102313 0
-0.021370 0.064697 0
-0.035953 0.040056 0
-0.051634 0.025220 0
-0.069488 0.014836 0
-0.089260 0.006363 0
-0.110199 -0.000947 0
-0.131868 -0.007297 0
-0.153752 -0.012952 0
-0.175296 -0.018199 0
-0.196113 -0.023263 0
-0.215906 -0.028230 0
-0.234473 -0.033155 0
-0.251631 -0.038071 0
-0.267166 -0.042960 0
-0.280868 -0.047742 0
-0.292480 -0.052281 0
-0.301716 -0.056389 0
-0.308263 -0.059851 0
-0.311794 -0.062435 0
-0.311956 -0.063910 0
-0.308260 -0.064103 0
-0.300244 -0.062866 0
-0.287615 -0.059917 0
-0.269359 -0.055197 0
-0.245149 -0.048851 0
-0.215076 -0.040810 0
-0.180061 -0.031243 0
-0.144121 -0.020780 0
-0.109728 -0.010166 0
-0.078921 -0.000151 0
-0.053465 0.007192 0
-0.033711 0.010969 0
-0.018968 0.012442 0
-0.008596 0.012444 0
-0.001919 0.011554 0
0.001791 0.010421 0
0.003617 0.009463 0
0.004254 0.008655 0
0.004155 0.007989 0
0.003629 0.007514 0
0.002885 0.007265 0
0.002072 0.007115 0
0.001275 0.006601 0
0.000535 0.004757 0
0.000000 0.000001 0
0.000000 0.000008 0
0.003658 0.089959 0
0.009372 0.137395 0
0.013219 0.155115 0
0.011353 0.147166 0
0.000455 0.116439 0
-0.015465 0.080080 0
-0.030872 0.055487 0
-0.046915 0.042007 0
-0.064579 0.033400 0
-0.083750 0.026483 0
-0.104106 0.020336 0
-0.125146 0.014564 0
-0.146396 0.008799 0
-0.167438 0.002916 0
-0.188018 -0.003050 0
-0.207862 -0.009083 0
-0.226672 -0.015188 0
-0.244209 -0.021430 0
-0.260383 -0.027817 0
-0.275138 -0.034300 0
-0.288283 -0.040796 0
-0.299574 -0.047154 0
-0.308701 -0.053165 0
-0.315344 -0.058581 0
-0.319196 -0.063140 0
-0.319988 -0.066591 0
-0.317551 -0.068702 0
-0.311790 -0.069282 0
-0.302544 -0.068271 0
-0.289876 -0.065686 0
-0.273898 -0.061542 0
-0.254629 -0.055970 0
-0.232223 -0.049230 0
-0.207080 -0.041665 0
-0.179784 -0.033674 0
-0.151156 -0.025494 0
-0.123569 -0.017605 0
-0.098408 -0.010560 0
-0.076460 -0.004603 0
-0.058029 0.000065 0
-0.043120 0.003172 0
-0.031322 0.004882 0
-0.022157 0.005793 0
-0.015187 0.006246 0
-0.010013 0.006494 0
-0.006244 0.006703 0
-0.003500 0.006845 0
-0.001530 0.006564 0
-0.000314 0.004936 0
0.000000 -0.000001 0
0.000000 0.000008 0
0.003533 0.085272 0
0.009223 0.132393 0
0.013660 0.153406 0
0.013568 0.152231 0
0.005652 0.129132 0
-0.009898 0.096025 0
-0.025982 0.071506 0
-0.042371 0.058927 0
-0.059874 0.051671 0
-0.078500 0.045890 0
-0.097902 0.040450 0
-0.117680 0.034993 0
-0.137583 0.029340 0
-0.157487 0.023423 0
-0.177210 0.017161 0
-0.196542 0.010425 0
-0.215242 0.003193 0
-0.233092 -0.004360 0
-0.249885 -0.012031 0
-0.265367 -0.019841 0
-0.279481 -0.027844 0
-0.292163 -0.035971 0
-0.303152 -0.044081 0
-0.312115 -0.051940 0
-0.318692 -0.059267 0
-0.322532 -0.065748 0
-0.323343 -0.071064 0
-0.320915 -0.074923 0
-0.315143 -0.077111 0