# vtk DataFile Version 2.0
generated by CFD-lab course output (written by Tobias Neckel) 
ASCII

DATASET STRUCTURED_GRID
DIMENSIONS  51 51 1 
POINTS 2601 float

0.000000 0.000000 0
0.020000 0.000000 0
0.040000 0.000000 0
0.060000 0.000000 0
0.080000 0.000000 0
0.100000 0.000000 0
0.120000 0.000000 0
0.140000 0.000000 0
0.160000 0.000000 0
0.180000 0.000000 0
0.200000 0.000000 0
0.220000 0.000000 0
0.240000 0.000000 0
0.260000 0.000000 0
0.280000 0.000000 0
0.300000 0.000000 0
0.320000 0.000000 0
0.340000 0.000000 0
0.360000 0.000000 0
0.380000 0.000000 0
0.400000 0.000000 0
0.420000 0.000000 0
0.440000 0.000000 0
0.460000 0.000000 0
0.480000 0.000000 0
0.500000 0.000000 0
0.520000 0.000000 0
0.540000 0.000000 0
0.560000 0.000000 0
0.580000 0.000000 0
0.600000 0.000000 0
0.620000 0.000000 0
0.640000 0.000000 0
0.660000 0.000000 0
0.680000 0.000000 0
0.700000 0.000000 0
0.720000 0.000000 0
0.740000 0.000000 0
0.760000 0.000000 0
0.780000 0.000000 0
0.800000 0.000000 0
0.820000 0.000000 0
0.840000 0.000000 0
0.860000 0.000000 0
0.880000 0.000000 0
0.900000 0.000000 0
0.920000 0.000000 0
0.940000 0.000000 0
0.960000 0.000000 0
0.980000 0.000000 0
1.000000 0.000000 0
0.000000 0.020000 0
0.020000 0.020000 0
0.040000 0.020000 0
0.060000 0.020000 0
0.080000 0.020000 0
0.100000 0.020000 0
0.120000 0.020000 0
0.140000 0.020000 0
0.160000 0.020000 0
0.180000 0.020000 0
0.200000 0.020000 0
0.220000 0.020000 0
0.240000 0.020000 0
0.260000 0.020000 0
0.280000 0.020000 0
0.300000 0.020000 0
0.320000 0.020000 0
0.340000 0.020000 0
0.360000 0.020000 0
0.380000 0.020000 0
0.400000 0.020000 0
0.420000 0.020000 0
0.440000 0.020000 0
0.460000 0.020000 0
0.480000 0.020000 0
0.500000 0.020000 0
0.520000 0.020000 0
0.540000 0.020000 0
0.560000 0.020000 0
0.580000 0.020000 0
0.600000 0.020000 0
0.620000 0.020000 0
0.640000 0.020000 0
0.660000 0.020000 0
0.680000 0.020000 0
0.700000 0.020000 0
0.720000 0.020000 0
0.740000 0.020000 0
0.760000 0.020000 0
0.780000 0.020000 0
0.800000 0.020000 0
0.820000 0.020000 0
0.840000 0.020000 0
0.860000 0.020000 0
0.880000 0.020000 0
0.900000 0.020000 0
0.920000 0.020000 0
0.940000 0.020000 0
0.960000 0.020000 0
0.980000 0.020000 0
1.000000 0.020000 0
0.000000 0.040000 0
0.020000 0.040000 0
0.040000 0.040000 0
0.060000 0.040000 0
0.080000 0.040000 0
0.100000 0.040000 0
0.120000 0.040000 0
0.140000 0.040000 0
0.160000 0.040000 0
0.180000 0.040000 0
0.200000 0.040000 0
0.220000 0.040000 0
0.240000 0.040000 0
0.260000 0.040000 0
0.280000 0.040000 0
0.300000 0.040000 0
0.320000 0.040000 0
0.340000 0.040000 0
0.360000 0.040000 0
0.380000 0.040000 0
0.400000 0.040000 0
0.420000 0.040000 0
0.440000 0.040000 0
0.460000 0.040000 0
0.480000 0.040000 0
0.500000 0.040000 0
0.520000 0.040000 0
0.540000 0.040000 0
0.560000 0.040000 0
0.580000 0.040000 0
0.600000 0.040000 0
0.620000 0.040000 0
0.640000 0.040000 0
0.660000 0.040000 0
0.680000 0.040000 0
0.700000 0.040000 0
0.720000 0.040000 0
0.740000 0.040000 0
0.760000 0.040000 0
0.780000 0.040000 0
0.800000 0.040000 0
0.820000 0.040000 0
0.840000 0.040000 0
0.860000 0.040000 0
0.880000 0.040000 0
0.900000 0.040000 0
0.920000 0.040000 0
0.940000 0.040000 0
0.960000 0.040000 0
0.980000 0.040000 0
1.000000 0.040000 0
0.000000 0.060000 0
0.020000 0.060000 0
0.040000 0.060000 0
0.060000 0.060000 0
0.080000 0.060000 0
0.100000 0.060000 0
0.120000 0.060000 0
0.140000 0.060000 0
0.160000 0.060000 0
0.180000 0.060000 0
0.200000 0.060000 0
0.220000 0.060000 0
0.240000 0.060000 0
0.260000 0.060000 0
0.280000 0.060000 0
0.300000 0.060000 0
0.320000 0.060000 0
0.340000 0.060000 0
0.360000 0.060000 0
0.380000 0.060000 0
0.400000 0.060000 0
0.420000 0.060000 0
0.440000 0.060000 0
0.460000 0.060000 0
0.480000 0.060000 0
0.500000 0.060000 0
0.520000 0.060000 0
0.540000 0.060000 0
0.560000 0.060000 0
0.580000 0.060000 0
0.600000 0.060000 0
0.620000 0.060000 0
0.640000 0.060000 0
0.660000 0.060000 0
0.680000 0.060000 0
0.700000 0.060000 0
0.720000 0.060000 0
0.740000 0.060000 0
0.760000 0.060000 0
0.780000 0.060000 0
0.800000 0.060000 0
0.820000 0.060000 0
0.840000 0.060000 0
0.860000 0.060000 0
0.880000 0.060000 0
0.900000 0.060000 0
0.920000 0.060000 0
0.940000 0.060000 0
0.960000 0.060000 0
0.980000 0.060000 0
1.000000 0.060000 0
0.000000 0.080000 0
0.020000 0.080000 0
0.040000 0.080000 0
0.060000 0.080000 0
0.080000 0.080000 0
0.100000 0.080000 0
0.120000 0.080000 0
0.140000 0.080000 0
0.160000 0.080000 0
0.180000 0.080000 0
0.200000 0.080000 0
0.220000 0.080000 0
0.240000 0.080000 0
0.260000 0.080000 0
0.280000 0.080000 0
0.300000 0.080000 0
0.320000 0.080000 0
0.340000 0.080000 0
0.360000 0.080000 0
0.380000 0.080000 0
0.400000 0.080000 0
0.420000 0.080000 0
0.440000 0.080000 0
0.460000 0.080000 0
0.480000 0.080000 0
0.500000 0.080000 0
0.520000 0.080000 0
0.540000 0.080000 0
0.560000 0.080000 0
0.580000 0.080000 0
0.600000 0.080000 0
0.620000 0.080000 0
0.640000 0.080000 0
0.660000 0.080000 0
0.680000 0.080000 0
0.700000 0.080000 0
0.720000 0.080000 0
0.740000 0.080000 0
0.760000 0.080000 0
0.780000 0.080000 0
0.800000 0.080000 0
0.820000 0.080000 0
0.840000 0.080000 0
0.860000 0.080000 0
0.880000 0.080000 0
0.900000 0.080000 0
0.920000 0.080000 0
0.940000 0.080000 0
0.960000 0.080000 0
0.980000 0.080000 0
1.000000 0.080000 0
0.000000 0.100000 0
0.020000 0.100000 0
0.040000 0.100000 0
0.060000 0.100000 0
0.080000 0.100000 0
0.100000 0.100000 0
0.120000 0.100000 0
0.140000 0.100000 0
0.160000 0.100000 0
0.180000 0.100000 0
0.200000 0.100000 0
0.220000 0.100000 0
0.240000 0.100000 0
0.260000 0.100000 0
0.280000 0.100000 0
0.300000 0.100000 0
0.320000 0.100000 0
0.340000 0.100000 0
0.360000 0.100000 0
0.380000 0.100000 0
0.400000 0.100000 0
0.420000 0.100000 0
0.440000 0.100000 0
0.460000 0.100000 0
0.480000 0.100000 0
0.500000 0.100000 0
0.520000 0.100000 0
0.540000 0.100000 0
0.560000 0.100000 0
0.580000 0.100000 0
0.600000 0.100000 0
0.620000 0.100000 0
0.640000 0.100000 0
0.660000 0.100000 0
0.680000 0.100000 0
0.700000 0.100000 0
0.720000 0.100000 0
0.740000 0.100000 0
0.760000 0.100000 0
0.780000 0.100000 0
0.800000 0.100000 0
0.820000 0.100000 0
0.840000 0.100000 0
0.860000 0.100000 0
0.880000 0.100000 0
0.900000 0.100000 0
0.920000 0.100000 0
0.940000 0.100000 0
0.960000 0.100000 0
0.980000 0.100000 0
1.000000 0.100000 0
0.000000 0.120000 0
0.020000 0.120000 0
0.040000 0.120000 0
0.060000 0.120000 0
0.080000 0.120000 0
0.100000 0.120000 0
0.120000 0.120000 0
0.140000 0.120000 0
0.160000 0.120000 0
0.180000 0.120000 0
0.200000 0.120000 0
0.220000 0.120000 0
0.240000 0.120000 0
0.260000 0.120000 0
0.280000 0.120000 0
0.300000 0.120000 0
0.320000 0.120000 0
0.340000 0.120000 0
0.360000 0.120000 0
0.380000 0.120000 0
0.400000 0.120000 0
0.420000 0.120000 0
0.440000 0.120000 0
0.460000 0.120000 0
0.480000 0.120000 0
0.500000 0.120000 0
0.520000 0.120000 0
0.540000 0.120000 0
0.560000 0.120000 0
0.580000 0.120000 0
0.600000 0.120000 0
0.620000 0.120000 0
0.640000 0.120000 0
0.660000 0.120000 0
0.680000 0.120000 0
0.700000 0.120000 0
0.720000 0.120000 0
0.740000 0.120000 0
0.760000 0.120000 0
0.780000 0.120000 0
0.800000 0.120000 0
0.820000 0.120000 0
0.840000 0.120000 0
0.860000 0.120000 0
0.880000 0.120000 0
0.900000 0.120000 0
0.920000 0.120000 0
0.940000 0.120000 0
0.960000 0.120000 0
0.980000 0.120000 0
1.000000 0.120000 0
0.000000 0.140000 0
0.020000 0.140000 0
0.040000 0.140000 0
0.060000 0.140000 0
0.080000 0.140000 0
0.100000 0.140000 0
0.120000 0.140000 0
0.140000 0.140000 0
0.160000 0.140000 0
0.180000 0.140000 0
0.200000 0.140000 0
0.220000 0.140000 0
0.240000 0.140000 0
0.260000 0.140000 0
0.280000 0.140000 0
0.300000 0.140000 0
0.320000 0.140000 0
0.340000 0.140000 0
0.360000 0.140000 0
0.380000 0.140000 0
0.400000 0.140000 0
0.420000 0.140000 0
0.440000 0.140000 0
0.460000 0.140000 0
0.480000 0.140000 0
0.500000 0.140000 0
0.520000 0.140000 0
0.540000 0.140000 0
0.560000 0.140000 0
0.580000 0.140000 0
0.600000 0.140000 0
0.620000 0.140000 0
0.640000 0.140000 0
0.660000 0.140000 0
0.680000 0.140000 0
0.700000 0.140000 0
0.720000 0.140000 0
0.740000 0.140000 0
0.760000 0.140000 0
0.780000 0.140000 0
0.800000 0.140000 0
0.820000 0.140000 0
0.840000 0.140000 0
0.860000 0.140000 0
0.880000 0.140000 0
0.900000 0.140000 0
0.920000 0.140000 0
0.940000 0.140000 0
0.960000 0.140000 0
0.980000 0.140000 0
1.000000 0.140000 0
0.000000 0.160000 0
0.020000 0.160000 0
0.040000 0.160000 0
0.060000 0.160000 0
0.080000 0.160000 0
0.100000 0.160000 0
0.120000 0.160000 0
0.140000 0.160000 0
0.160000 0.160000 0
0.180000 0.160000 0
0.200000 0.160000 0
0.220000 0.160000 0
0.240000 0.160000 0
0.260000 0.160000 0
0.280000 0.160000 0
0.300000 0.160000 0
0.320000 0.160000 0
0.340000 0.160000 0
0.360000 0.160000 0
0.380000 0.160000 0
0.400000 0.160000 0
0.420000 0.160000 0
0.440000 0.160000 0
0.460000 0.160000 0
0.480000 0.160000 0
0.500000 0.160000 0
0.520000 0.160000 0
0.540000 0.160000 0
0.560000 0.160000 0
0.580000 0.160000 0
0.600000 0.160000 0
0.620000 0.160000 0
0.640000 0.160000 0
0.660000 0.160000 0
0.680000 0.160000 0
0.700000 0.160000 0
0.720000 0.160000 0
0.740000 0.160000 0
0.760000 0.160000 0
0.780000 0.160000 0
0.800000 0.160000 0
0.820000 0.160000 0
0.840000 0.160000 0
0.860000 0.160000 0
0.880000 0.160000 0
0.900000 0.160000 0
0.920000 0.160000 0
0.940000 0.160000 0
0.960000 0.160000 0
0.980000 0.160000 0
1.000000 0.160000 0
0.000000 0.180000 0
0.020000 0.180000 0
0.040000 0.180000 0
0.060000 0.180000 0
0.080000 0.180000 0
0.100000 0.180000 0
0.120000 0.180000 0
0.140000 0.180000 0
0.160000 0.180000 0
0.180000 0.180000 0
0.200000 0.180000 0
0.220000 0.180000 0
0.240000 0.180000 0
0.260000 0.180000 0
0.280000 0.180000 0
0.300000 0.180000 0
0.320000 0.180000 0
0.340000 0.180000 0
0.360000 0.180000 0
0.380000 0.180000 0
0.400000 0.180000 0
0.420000 0.180000 0
0.440000 0.180000 0
0.460000 0.180000 0
0.480000 0.180000 0
0.500000 0.180000 0
0.520000 0.180000 0
0.540000 0.180000 0
0.560000 0.180000 0
0.580000 0.180000 0
0.600000 0.180000 0
0.620000 0.180000 0
[...]
POINT_DATA 2601 

VECTORS velocity float
0.000000 0.000000 0
-0.000000 0.000000 0
-0.000002 0.000000 0
-0.000004 0.000000 0
-0.000007 0.000000 0
-0.000011 0.000000 0
-0.000016 0.000000 0
-0.000022 0.000000 0
-0.000029 0.000000 0
-0.000034 0.000000 0
-0.000035 0.000000 0
-0.000034 0.000000 0
-0.000027 0.000000 0
-0.000017 0.000000 0
-0.000007 0.000000 0
0.000003 0.000000 0
0.000009 0.000000 0
0.000013 0.000000 0
0.000014 0.000000 0
0.000014 0.000000 0
0.000014 0.000000 0
0.000012 0.000000 0
0.000010 0.000000 0
0.000008 0.000000 0
0.000006 0.000000 0
0.000004 0.000000 0
0.000003 0.000000 0
0.000002 0.000000 0
0.000001 0.000000 0
0.000001 0.000000 0
0.000000 0.000000 0
0.000000 0.000000 0
0.000000 0.000000 0
0.000000 0.000000 0
0.000001 0.000000 0
0.000001 0.000000 0
0.000001 0.000000 0
0.000001 0.000000 0
0.000001 0.000000 0
0.000001 0.000000 0
0.000001 0.000000 0
0.000001 0.000000 0
0.000001 0.000000 0
0.000001 0.000000 0
0.000001 0.000000 0
0.000001 0.000000 0
0.000001 0.000000 0
0.000000 0.000000 0
0.000000 0.000000 0
0.000000 0.000000 0
0.000000 0.000000 0
0.000000 0.000000 0
-0.009968 0.008831 0
-0.025160 0.009418 0
-0.036214 0.005547 0
-0.042254 0.001710 0
-0.043788 -0.001920 0
-0.040824 -0.006034 0
-0.032994 -0.010823 0
-0.019972 -0.015858 0
-0.001718 -0.019965 0
0.021388 -0.022434 0
0.047980 -0.022787 0
0.075853 -0.020523 0
0.102777 -0.015815 0
0.125733 -0.009433 0
0.142152 -0.002851 0
0.150165 0.002618 0
0.149458 0.006662 0
0.141705 0.009684 0
0.128820 0.012023 0
0.112264 0.013798 0
0.093344 0.014925 0
0.073376 0.015203 0
0.053709 0.014451 0
0.035632 0.012645 0
0.020232 0.009990 0
0.008256 0.006902 0
0.000004 0.003911 0
-0.004709 0.001685 0
-0.006857 0.000472 0
-0.007632 -0.000060 0
-0.007761 -0.000238 0
-0.007614 -0.000272 0
-0.007355 -0.000264 0
-0.007038 -0.000258 0
-0.006670 -0.000267 0
-0.006244 -0.000291 0
-0.005755 -0.000322 0
-0.005202 -0.000354 0
-0.004596 -0.000380 0
-0.003954 -0.000395 0
-0.003298 -0.000396 0
-0.002654 -0.000381 0
-0.002047 -0.000353 0
-0.001498 -0.000312 0
-0.001024 -0.000263 0
-0.000637 -0.000207 0
-0.000341 -0.000148 0
-0.000137 -0.000086 0
-0.000026 -0.000026 0
0.000000 0.000000 0
0.000000 0.000001 0
-0.014565 0.025160 0
-0.035234 0.026246 0
-0.051202 0.017093 0
-0.061250 0.007573 0
-0.065858 -0.001430 0
-0.065374 -0.010794 0
-0.060090 -0.020854 0
-0.050127 -0.031278 0
-0.035455 -0.041361 0
-0.015587 -0.049699 0
0.009348 -0.054467 0
0.039311 -0.054798 0
0.072875 -0.049882 0
0.107406 -0.039377 0
0.139494 -0.024432 0
0.164265 -0.007307 0
0.177800 0.008460 0
0.177939 0.020638 0
0.167496 0.029440 0
0.149510 0.035475 0
0.126842 0.038888 0
0.102065 0.039635 0
0.077337 0.037744 0
0.054324 0.033477 0
0.034206 0.027376 0
0.017745 0.020229 0
0.005329 0.012966 0
-0.003050 0.006861 0
-0.007737 0.002923 0
-0.010032 0.000904 0
-0.011016 -0.000018 0
-0.011305 -0.000406 0
-0.011219 -0.000577 0
-0.010909 -0.000685 0
-0.010430 -0.000793 0
-0.009803 -0.000915 0
-0.009040 -0.001042 0
-0.008159 -0.001159 0
-0.007187 -0.001248 0
-0.006160 -0.001298 0
-0.005119 -0.001300 0
-0.004107 -0.001251 0
-0.003163 -0.001156 0
-0.002319 -0.001022 0
-0.001598 -0.000861 0
-0.001014 -0.000684 0
-0.000568 -0.000499 0
-0.000256 -0.000314 0
-0.000069 -0.000137 0
0.000000 0.000000 0
0.000000 0.000002 0
-0.015441 0.044064 0
-0.037907 0.046055 0
-0.056022 0.031563 0
-0.068240 0.016365 0
-0.075307 0.002204 0
-0.077763 -0.011803 0
-0.076242 -0.026070 0
-0.071073 -0.040494 0
-0.062403 -0.054505 0
-0.050232 -0.067237 0
-0.033974 -0.077687 0
-0.012704 -0.084051 0
0.013747 -0.083911 0
0.045611 -0.076052 0
0.080780 -0.059710 0
0.115437 -0.035689 0
0.144429 -0.007012 0
0.160825 0.019988 0
0.161433 0.040452 0
0.150418 0.054452 0
0.131935 0.062369 0
0.109635 0.064707 0
0.086353 0.062192 0
0.064057 0.055776 0
0.043984 0.046570 0
0.026849 0.035780 0
0.013021 0.024706 0
0.002564 0.014751 0
-0.004467 0.007454 0
-0.008477 0.003218 0
-0.010576 0.001034 0
-0.011554 -0.000068 0
-0.011864 -0.000660 0
-0.011746 -0.001047 0
-0.011320 -0.001373 0
-0.010648 -0.001681 0
-0.009774 -0.001966 0
-0.008744 -0.002207 0
-0.007609 -0.002379 0
-0.006425 -0.002463 0
-0.005248 -0.002449 0
-0.004132 -0.002338 0
-0.003119 -0.002141 0
-0.002241 -0.001877 0
-0.001516 -0.001568 0
-0.000948 -0.001237 0
-0.000530 -0.000906 0
-0.000245 -0.000585 0
-0.000071 -0.000282 0
0.000000 0.000000 0
0.000000 0.000003 0
-0.014295 0.063066 0
-0.036684 0.066826 0
-0.055708 0.047426 0
-0.069091 0.026858 0
-0.077755 0.008092 0
-0.082497 -0.009859 0
-0.083913 -0.027544 0
-0.082490 -0.045118 0
-0.078392 -0.062203 0
-0.071634 -0.078129 0
-0.062015 -0.091995 0
-0.049304 -0.102519 0
-0.032603 -0.108197 0
-0.010702 -0.106411 0
0.016597 -0.094259 0
0.049270 -0.070956 0
0.083608 -0.036929 0
0.113062 0.003634 0
0.127941 0.039846 0
0.127894 0.064972 0
0.118355 0.079671 0
0.103332 0.085217 0
0.085811 0.083322 0
0.067840 0.075845 0
0.050715 0.064583 0
0.035218 0.051192 0
0.021806 0.037251 0
0.010734 0.024349 0
0.002170 0.013964 0
-0.003591 0.007013 0
-0.006998 0.003060 0
-0.008812 0.000882 0
-0.009650 -0.000385 0
-0.009830 -0.001230 0
-0.009558 -0.001891 0
-0.008951 -0.002460 0
-0.008099 -0.002946 0
-0.007079 -0.003324 0
-0.005970 -0.003567 0
-0.004846 -0.003658 0
-0.003772 -0.003592 0
-0.002799 -0.003380 0
-0.001966 -0.003047 0
-0.001293 -0.002625 0
-0.000784 -0.002154 0
-0.000429 -0.001669 0
-0.000207 -0.001203 0
-0.000084 -0.000773 0
-0.000024 -0.000382 0
0.000000 0.000001 0
0.000000 0.000004 0
-0.012048 0.080748 0
-0.033195 0.087467 0
-0.052514 0.063970 0
-0.066638 0.038412 0
-0.076423 0.015609 0
-0.082898 -0.005646 0
-0.086609 -0.026077 0
-0.088202 -0.046015 0
-0.087903 -0.065362 0
-0.085786 -0.083615 0
-0.081748 -0.100017 0
-0.075546 -0.113463 0
-0.066680 -0.122514 0
-0.054632 -0.125252 0
-0.037947 -0.119682 0
-0.015204 -0.102700 0
0.013424 -0.070805 0
0.046710 -0.024346 0
0.077694 0.025620 0
0.088673 0.064039 0
0.090454 0.086930 0
0.085818 0.097250 0
0.077158 0.097685 0
0.066229 0.090872 0
0.054283 0.079191 0
0.042239 0.064688 0
0.030750 0.049190 0
0.020296 0.034387 0
0.011337 0.021779 0
0.004344 0.012386 0
-0.000396 0.006254 0
-0.003263 0.002583 0
-0.004806 0.000359 0
-0.005438 -0.001139 0
-0.005441 -0.002251 0
-0.005030 -0.003139 0
-0.004350 -0.003838 0
-0.003520 -0.004335 0
-0.002639 -0.004612 0
-0.001793 -0.004661 0
-0.001044 -0.004495 0
-0.000434 -0.004143 0
0.000014 -0.003648 0
0.000296 -0.003059 0
0.000425 -0.002431 0
0.000423 -0.001814 0
0.000327 -0.001251 0
0.000186 -0.000768 0
0.000058 -0.000366 0
0.000000 0.000001 0
0.000000 0.000005 0
-0.009283 0.096260 0
-0.028352 0.107291 0
-0.047579 0.080869 0
-0.062284 0.050767 0
-0.072932 0.024352 0
-0.080726 0.000326 0
-0.086319 -0.022241 0
-0.090369 -0.043824 0
-0.093239 -0.064620 0
-0.095103 -0.084285 0
-0.095984 -0.102235 0
-0.095729 -0.117588 0
-0.093922 -0.129112 0
-0.089915 -0.135144 0
-0.082661 -0.133687 0
-0.071175 -0.122327 0
-0.053390 -0.098843 0
-0.027148 -0.060636 0
0.006728 -0.002117 0
0.037337 0.052212 0
0.052992 0.082526 0
0.059851 0.098514 0
0.061542 0.102911 0
0.059329 0.098720 0
0.054182 0.088573 0
0.047085 0.074725 0
0.038881 0.059194 0
0.030267 0.043761 0
0.021941 0.029915 0
0.014650 0.018747 0
0.008979 0.010668 0
0.005041 0.005293 0
0.002606 0.001789 0
0.001282 -0.000596 0
0.000767 -0.002299 0
0.000760 -0.003551 0
0.001043 -0.004456 0
0.001455 -0.005035 0
0.001876 -0.005294 0
0.002225 -0.005253 0
0.002448 -0.004950 0
0.002522 -0.004437 0
0.002441 -0.003777 0
0.002216 -0.003036 0
0.001871 -0.002280 0
0.001437 -0.001571 0
0.000962 -0.000966 0
0.000507 -0.000504 0
0.000154 -0.000195 0
0.000000 0.000001 0
0.000000 0.000006 0
-0.006418 0.109100 0
-0.022755 0.125762 0
-0.041515 0.097901 0
-0.056731 0.063766 0
-0.068103 0.034051 0
-0.076975 0.007741 0
-0.084201 -0.016435 0
-0.090259 -0.039095 0
-0.095755 -0.060628 0
-0.100946 -0.080870 0
-0.105971 -0.099391 0
-0.110814 -0.115525 0
-0.115225 -0.128328 0
-0.118641 -0.136513 0
-0.120050 -0.138422 0
-0.118035 -0.131972 0
-0.110581 -0.114832 0
-0.095687 -0.084463 0
-0.070514 -0.038866 0
-0.029029 0.017774 0
0.005717 0.064417 0
0.027789 0.088700 0
0.040563 0.098206 0
0.047603 0.098232 0
0.050069 0.091435 0
0.048976 0.079989 0
0.045223 0.066008 0
0.039603 0.051327 0
0.032982 0.037396 0
0.026321 0.025348 0
0.020423 0.015863 0
0.015752 0.008956 0
0.012397 0.004118 0
0.010174 0.000701 0
0.008809 -0.001729 0
0.008062 -0.003416 0
0.007640 -0.004533 0
0.007350 -0.005168 0
0.007064 -0.005382 0
0.006706 -0.005233 0
0.006242 -0.004792 0
0.005660 -0.004136 0
0.004968 -0.003342 0
0.004186 -0.002489 0
0.003338 -0.001652 0
0.002459 -0.000905 0
0.001597 -0.000320 0
0.000825 0.000039 0
0.000247 0.000141 0
0.000000 0.000001 0
0.000000 0.000007 0
-0.003767 0.119015 0
-0.016856 0.142388 0
-0.034699 0.114845 0
-0.050379 0.077355 0
-0.062448 0.044595 0
-0.072276 0.016424 0
-0.080904 -0.008957 0
-0.088688 -0.032269 0
-0.096405 -0.053934 0
-0.104387 -0.074069 0
-0.112834 -0.092367 0
-0.121817 -0.108335 0
-0.131221 -0.121286 0
-0.140654 -0.130319 0
-0.149296 -0.134293 0
-0.155756 -0.131796 0
-0.157844 -0.121190 0
-0.152575 -0.100704 0
-0.135966 -0.068776 0
-0.103801 -0.024018 0
-0.057295 0.025708 0
-0.014935 0.063667 0
0.013363 0.083097 0
0.031560 0.089215 0
0.041970 0.087199 0
0.047426 0.079570 0
0.048962 0.068567 0
0.047296 0.056003 0
0.043362 0.043198 0
0.038298 0.031306 0
0.032988 0.021236 0
0.028079 0.013318 0
0.023979 0.007367 0
0.020791 0.002993 0
0.018358 -0.000186 0
0.016491 -0.002381 0
0.015007 -0.003744 0
0.013710 -0.004459 0
0.012475 -0.004651 0
0.011235 -0.004432 0
0.009963 -0.003903 0
0.008657 -0.003164 0
0.007328 -0.002304 0
0.005990 -0.001406 0
0.004663 -0.000553 0
0.003374 0.000170 0
0.002165 0.000668 0
0.001110 0.000845 0
0.000331 0.000630 0
0.000000 0.000001 0
0.000000 0.000007 0
-0.001553 0.125956 0
-0.011039 0.156694 0
-0.027406 0.131424 0
-0.043445 0.091515 0
-0.056216 0.055947 0
-0.066867 0.026196 0
-0.076667 -0.000023 0
-0.086133 -0.023594 0
-0.095800 -0.044930 0
-0.106165 -0.064441 0
-0.117439 -0.081961 0
-0.129703 -0.097137 0
-0.142875 -0.109491 0
-0.156646 -0.118439 0
-0.170362 -0.123321 0
-0.182880 -0.123423 0
-0.192365 -0.118012 0
-0.196147 -0.106342 0
-0.190635 -0.087640 0
-0.171639 -0.060898 0
-0.134488 -0.024450 0
-0.083733 0.018043 0
-0.033176 0.051712 0
0.004476 0.069625 0
0.028401 0.075569 0
0.041948 0.072997 0
0.049552 0.066138 0
0.052510 0.056926 0
0.051987 0.046394 0
0.049391 0.035722 0
0.045444 0.026083 0
0.040834 0.017966 0
0.036283 0.011406 0
0.032209 0.006322 0
0.028655 0.002571 0
0.025486 -0.000065 0
0.022641 -0.001752 0
0.020058 -0.002636 0
0.017673 -0.002906 0
0.015427 -0.002722 0
0.013288 -0.002215 0
0.011246 -0.001500 0
0.009302 -0.000675 0
0.007459 0.000175 0
0.005721 0.000964 0
0.004099 0.001594 0
0.002619 0.001944 0
0.001345 0.001873 0
0.000404 0.001251 0
0.000000 0.000001 0
0.000000 0.000008 0
0.000083 0.130054 0
-0.005639 0.168240 0
-0.019885 0.147251 0
-0.036052 0.106165 0
-0.049532 0.068017 0
-0.060896 0.036875 0
-0.071732 0.010309 0
-0.082858 -0.013137 0
-0.094290 -0.033902 0
-0.106702 -0.052431 0
-0.120310 -0.068829 0
-0.135141 -0.082898 0
-0.151052 -0.094343 0
-0.167703 -0.102833 0
-0.184494 -0.108059 0
-0.200494 -0.109792 0
-0.214369 -0.107923 0
-0.224320 -0.102434 0
-0.228050 -0.093284 0
-0.222773 -0.080166 0
-0.205113 -0.062198 0
-0.170819 -0.037645 0
-0.120732 -0.005111 0
-0.066293 0.027637 0
-0.016865 0.049727 0
0.019197 0.058419 0
0.040995 0.058005 0
0.051947 0.053567 0
0.056383 0.046317 0
0.057480 0.037848 0
0.055687 0.029794 0
0.051876 0.022480 0
0.047288 0.015992 0
0.042628 0.010621 0
0.038062 0.006537 0
0.033650 0.003633 0
0.029461 0.001684 0
0.025589 0.000509 0
0.022041 -0.000019 0
0.018789 -0.000046 0
0.015814 0.000277 0
0.013104 0.000822 0
0.010641 0.001484 0
0.008408 0.002175 0
0.006383 0.002807 0
0.004553 0.003272 0
0.002918 0.003422 0
0.001517 0.003061 0
0.000466 0.001975 0
0.000000 0.000001 0
0.000000 0.000008 0
0.001254 0.131595 0
-0.000981 0.176662 0
-0.012415 0.161837 0
-0.028318 0.121162 0
-0.042524 0.080792 0
-0.054566 0.048397 0
-0.066250 0.021939 0
-0.078687 -0.001037 0
-0.091944 -0.021086 0
-0.106156 -0.038421 0
-0.121671 -0.053522 0
-0.138461 -0.066395 0
-0.156291 -0.076929 0
-0.174750 -0.084997 0
-0.193227 -0.090530 0
-0.210919 -0.093548 0
-0.226856 -0.094186 0
-0.239948 -0.092661 0
-0.249020 -0.089187 0
-0.252785 -0.083835 0
-0.249679 -0.076404 0
-0.237554 -0.066337 0
-0.213239 -0.052814 0
-0.173452 -0.034242 0
-0.123252 -0.009921 0
-0.070596 0.015138 0
-0.023839 0.033388 0
0.012850 0.041537 0
0.037441 0.040861 0
0.050154 0.036419 0
0.054829 0.031687 0
0.054367 0.026365 0
0.051605 0.020655 0
0.047734 0.015548 0
0.043048 0.011548 0
0.037995 0.008536 0
0.033040 0.006309 0
0.028403 0.004785 0
0.024125 0.003894 0
0.020225 0.003505 0
0.016725 0.003471 0
0.013630 0.003673 0
0.010914 0.004021 0
0.008531 0.004434 0
0.006439 0.004819 0
0.004598 0.005059 0
0.002980 0.004980 0
0.001589 0.004325 0
0.000513 0.002768 0
0.000000 0.000001 0
0.000000 0.000008 0
0.002157 0.131035 0
0.002707 0.181910 0
-0.005333 0.174588 0
-0.020405 0.136273 0
-0.035298 0.094265 0
-0.048032 0.060601 0
-0.060340 0.034430 0
-0.073666 0.012557 0
-0.088520 -0.006434 0
-0.104485 -0.022705 0
-0.121544 -0.036524 0
-0.139764 -0.048278 0
-0.158845 -0.058054 0
-0.178348 -0.065897 0
-0.197679 -0.071889 0
-0.216146 -0.076163 0
-0.233008 -0.078894 0
-0.247547 -0.080270 0
-0.259127 -0.080447 0
-0.267192 -0.079506 0
-0.271198 -0.077429 0
-0.270470 -0.074084 0
-0.264026 -0.069213 0
-0.250511 -0.062349 0
-0.227491 -0.053129 0
-0.193018 -0.040994 0
-0.149849 -0.025441 0
-0.103722 -0.007713 0
-0.060556 0.009014 0
-0.025030 0.020460 0
0.002221 0.025581 0
0.020832 0.025704 0
0.030697 0.022625 0
0.034221 0.019178 0
0.033842 0.016276 0
0.031361 0.013641 0
0.028050 0.011276 0
0.024502 0.009424 0
0.020923 0.008159 0
0.017498 0.007354 0
0.014374 0.006873 0
0.011623 0.006634 0
0.009247 0.006582 0
0.007201 0.006649 0
0.005442 0.006740 0
0.003928 0.006731 0
0.002613 0.006431 0
0.001464 0.005529 0
0.000516 0.003565 0
0.000000 0.000001 0
0.000000 0.000008 0
0.002826 0.128888 0
0.005420 0.184152 0
0.000977 0.184948 0
-0.012525 0.151128 0
-0.027942 0.108419 0
-0.041445 0.073439 0
-0.054286 0.047572 0
-0.068197 0.027143 0
-0.083887 0.009734 0
-0.101253 -0.005397 0
-0.119760 -0.018243 0
-0.139010 -0.029094 0
-0.158821 -0.038345 0
-0.178822 -0.046163 0
-0.198488 -0.052731 0
-0.217283 -0.058219 0
-0.234650 -0.062785 0
-0.250077 -0.066542 0
-0.263126 -0.069542 0
-0.273442 -0.071763 0
-0.280744 -0.073126 0
-0.284799 -0.073509 0
-0.285373 -0.072773 0
-0.282165 -0.070777 0
-0.274648 -0.067414 0
-0.262289 -0.062504 0
-0.244092 -0.055907 0
-0.219029 -0.047755 0
-0.187296 -0.037832 0
-0.151053 -0.026359 0
-0.114654 -0.014175 0
-0.081035 -0.002111 0
-0.052900 0.007266 0
-0.031180 0.012403 0
-0.015272 0.014407 0
-0.004576 0.014328 0
0.001658 0.013169 0
0.004660 0.011911 0
0.005725 0.010897 0
0.005710 0.010054 0
0.005184 0.009347 0
0.004467 0.008801 0
0.003732 0.008443 0
0.003037 0.008238 0
0.002417 0.008092 0
0.001878 0.007888 0
0.001395 0.007445 0
0.000913 0.006423 0
0.000398 0.004232 0
0.000000 0.000001 0
0.000000 0.000008 0
0.003280 0.125615 0
0.007316 0.183758 0
0.006052 0.192533 0
-0.004896 0.165193 0
-0.020534 0.123185 0
-0.034895 0.086945 0
-0.048299 0.061183 0
-0.062588 0.042159 0
-0.078582 0.026622 0
-0.096395 0.013169 0
-0.115660 0.001234 0
-0.135742 -0.009217 0
-0.156142 -0.018242 0
-0.176350 -0.026230 0
-0.196035 -0.033427 0
-0.214891 -0.040000 0
-0.232529 -0.046100 0
-0.248608 -0.051794 0
-0.262799 -0.057083 0
-0.274801 -0.061888 0
-0.284332 -0.066071 0
-0.291153 -0.069454 0
-0.295063 -0.071847 0
-0.295915 -0.073074 0
-0.293609 -0.073004 0
-0.288114 -0.071550 0
-0.279337 -0.068700 0
-0.267219 -0.064509 0
-0.251830 -0.058962 0
-0.232843 -0.052181 0
-0.210376 -0.044437 0
-0.184689 -0.036050 0
-0.156477 -0.027230 0
-0.128350 -0.018451 0
-0.102271 -0.010328 0
-0.079423 -0.003289 0
-0.060429 0.002040 0
-0.045263 0.005357 0
-0.033444 0.007109 0
-0.024429 0.007895 0
-0.017726 0.008116 0
-0.012843 0.008085 0
-0.009290 0.008012 0
-0.006598 0.007965 0
-0.004486 0.007899 0
-0.002792 0.007753 0
-0.001452 0.007397 0
-0.000490 0.006526 0
0.000003 0.004477 0
0.000000 -0.000000 0
0.000000 0.000008 0
0.003556 0.121572 0
0.008554 0.181380 0
0.009691 0.197160 0
0.002082 0.177713 0
-0.013167 0.138419 0
-0.028396 0.101204 0
-0.042460 0.075265 0
-0.057073 0.057426 0
-0.073176 0.043541 0
-0.090827 0.031681 0
-0.109805 0.021103 0
-0.129801 0.011387 0
-0.150211 0.002264 0
-0.170543 -0.006270 0
-0.190381 -0.014190 0
-0.209266 -0.021724 0
-0.227003 -0.029067 0
-0.243487 -0.036271 0
-0.258512 -0.043349 0
-0.271845 -0.050230 0
-0.283202 -0.056773 0
-0.292293 -0.062778 0
-0.298835 -0.068011 0
-0.302580 -0.072232 0
-0.303349 -0.075215 0
-0.301056 -0.076776 0
-0.295716 -0.076802 0
-0.287474 -0.075262 0
-0.276561 -0.072207 0
-0.263166 -0.067812 0
-0.247576 -0.062329 0
-0.230073 -0.056009 0
-0.211000 -0.049073 0
-0.190536 -0.041804 0
-0.169138 -0.034521 0
-0.147267 -0.027514 0
-0.125543 -0.020990 0
-0.104873 -0.015074 0
-0.086050 -0.009937 0
-0.069418 -0.005663 0
-0.055083 -0.002240 0
-0.042937 0.000364 0
-0.032758 0.002199 0
-0.024272 0.003434 0
-0.017230 0.004286 0
-0.011445 0.004854 0
-0.006789 0.005143 0
-0.003226 0.004969 0
-0.000862 0.003742 0
0.000000 -0.000002 0
0.000000 0.000009 0
0.003684 0.117060 0
0.009257 0.177623 0
0.012108 0.199005 0
0.007743 0.188051 0
-0.005943 0.153663 0
-0.021906 0.116238 0
-0.036710 0.089860 0
-0.051625 0.072875 0
-0.067712 0.060376 0
-0.085065 0.049798 0
-0.103428 0.040208 0
-0.122494 0.031189 0
-0.142016 0.022501 0
-0.161734 0.013941 0
-0.181235 0.005296 0
-0.200115 -0.003378 0
-0.218114 -0.011879 0
-0.234919 -0.020284 0
-0.250443 -0.028724 0
-0.264671 -0.037198 0
-0.277384 -0.045623 0
-0.288303 -0.053821 0
-0.297101 -0.061560 0
-0.303445 -0.068560 0
-0.307037 -0.074528 0
-0.307640 -0.079182 0
-0.305117 -0.082282 0
-0.299459 -0.083665 0
-0.290797 -0.083270 0
-0.279385 -0.081166 0
-0.265622 -0.077531 0
-0.249976 -0.072625 0
-0.232920 -0.066767 0
-0.214849 -0.060313 0
-0.196150 -0.053597 0
-0.177146 -0.046883 0
-0.158154 -0.040354 0
-0.139404 -0.034135 0
-0.121110 -0.028347 0
-0.103509 -0.023072 0
-0.086801 -0.018365 0
-0.071174 -0.014240 0
-0.056800 -0.010653 0
-0.043854 -0.007563 0
-0.032385 -0.004927 0
-0.022403 -0.002688 0
-0.013929 -0.000823 0
-0.007068 0.000599 0
-0.002155 0.001252 0
0.000000 -0.000004 0
0.000000 0.000009 0
0.003696 0.112314 0
0.009544 0.172956 0
0.013547 0.198674 0
0.011754 0.195765 0
0.000850 0.168068 0
-0.015441 0.131971 0
-0.030964 0.104985 0
-0.046148 0.088428 0
-0.062095 0.076982 0
-0.079005 0.067397 0
-0.096656 0.058532 0
-0.114782 0.049976 0
-0.133160 0.041503 0
-0.151585 0.032949 0
-0.169922 0.024192 0
-0.188098 0.015155 0
-0.205846 0.005736 0
-0.222823 -0.003941 0
-0.238793 -0.013596 0
-0.253519 -0.023289 0
-0.267047 -0.033141 0
-0.279231 -0.043061 0
-0.289774 -0.052869 0
-0.298316 -0.062296 0
-0.304480 -0.071020 0
-0.307911 -0.078696 0
-0.308311 -0.084983 0
-0.305486 -0.089582 0
-0.299379 -0.092281 0
-0.290100 -0.092986 0
-0.277933 -0.091738 0
-0.263305 -0.088711 0
-0.246740 -0.084200 0
-0.228798 -0.078574 0
-0.210041 -0.072224 0
-0.190960 -0.065510 0
-0.171949 -0.058731 0
-0.153276 -0.052118 0
-0.135113 -0.045833 0
-0.117583 -0.039972 0
-0.100771 -0.034575 0
-0.084755 -0.029637 0
-0.069607 -0.025120 0
-0.055385 -0.020981 0
-0.042177 -0.017166 0
-0.030093 -0.013601 0
-0.019307 -0.010191 0
-0.010138 -0.006805 0
-0.003239 -0.003326 0
0.000000 -0.000005 0
0.000000 0.000008 0
0.003617 0.107516 0
0.009514 0.167772 0
0.014213 0.196795 0
0.014350 0.200747 0
0.006561 0.180858 0
-0.009051 0.148052 0
-0.025140 0.120567 0
-0.040555 0.104006 0
-0.056260 0.093233 0
-0.072609 0.084359 0
-0.089460 0.075985 0
-0.106587 0.067693 0
-0.123805 0.059304 0
-0.140977 0.050703 0
-0.158020 0.041809 0
-0.174871 0.032546 0
-0.191474 0.022846 0
-0.207815 0.012663 0
-0.223660 0.001973 0
-0.238660 -0.008943 0
-0.252592 -0.019911 0
-0.265428 -0.031094 0
-0.277093 -0.042474 0
-0.287273 -0.053853 0
-0.295580 -0.064933 0
-0.301593 -0.075351 0
-0.304897 -0.084707 0