# vtk DataFile Version 2.0
generated by CFD-lab course output (written by Tobias Neckel) 
ASCII

DATASET STRUCTURED_GRID
DIMENSIONS  51 51 1 
POINTS 2601 float

0.000000 0.000000 0
0.020000 0.000000 0
0.040000 0.000000 0
0.060000 0.000000 0
0.080000 0.000000 0
0.100000 0.000000 0
0.120000 0.000000 0
0.140000 0.000000 0
0.160000 0.000000 0
0.180000 0.000000 0
0.200000 0.000000 0
0.220000 0.000000 0
0.240000 0.000000 0
0.260000 0.000000 0
0.280000 0.000000 0
0.300000 0.000000 0
0.320000 0.000000 0
0.340000 0.000000 0
0.360000 0.000000 0
0.380000 0.000000 0
0.400000 0.000000 0
0.420000 0.000000 0
0.440000 0.000000 0
0.460000 0.000000 0
0.480000 0.000000 0
0.500000 0.000000 0
0.520000 0.000000 0
0.540000 0.000000 0
0.560000 0.000000 0
0.580000 0.000000 0
0.600000 0.000000 0
0.620000 0.000000 0
0.640000 0.000000 0
0.660000 0.000000 0
0.680000 0.000000 0
0.700000 0.000000 0
0.720000 0.000000 0
0.740000 0.000000 0
0.760000 0.000000 0
0.780000 0.000000 0
0.800000 0.000000 0
0.820000 0.000000 0
0.840000 0.000000 0
0.860000 0.000000 0
0.880000 0.000000 0
0.900000 0.000000 0
0.920000 0.000000 0
0.940000 0.000000 0
0.960000 0.000000 0
0.980000 0.000000 0
1.000000 0.000000 0
0.000000 0.020000 0
0.020000 0.020000 0
0.040000 0.020000 0
0.060000 0.020000 0
0.080000 0.020000 0
0.100000 0.020000 0
0.120000 0.020000 0
0.140000 0.020000 0
0.160000 0.020000 0
0.180000 0.020000 0
0.200000 0.020000 0
0.220000 0.020000 0
0.240000 0.020000 0
0.260000 0.020000 0
0.280000 0.020000 0
0.300000 0.020000 0
0.320000 0.020000 0
0.340000 0.020000 0
0.360000 0.020000 0
0.380000 0.020000 0
0.400000 0.020000 0
0.420000 0.020000 0
0.440000 0.020000 0
0.460000 0.020000 0
0.480000 0.020000 0
0.500000 0.020000 0
0.520000 0.020000 0
0.540000 0.020000 0
0.560000 0.020000 0
0.580000 0.020000 0
0.600000 0.020000 0
0.620000 0.020000 0
0.640000 0.020000 0
0.660000 0.020000 0
0.680000 0.020000 0
0.700000 0.020000 0
0.720000 0.020000 0
0.740000 0.020000 0
0.760000 0.020000 0
0.780000 0.020000 0
0.800000 0.020000 0
0.820000 0.020000 0
0.840000 0.020000 0
0.860000 0.020000 0
0.880000 0.020000 0
0.900000 0.020000 0
0.920000 0.020000 0
0.940000 0.020000 0
0.960000 0.020000 0
0.980000 0.020000 0
1.000000 0.020000 0
0.000000 0.040000 0
0.020000 0.040000 0
0.040000 0.040000 0
0.060000 0.040000 0
0.080000 0.040000 0
0.100000 0.040000 0
0.120000 0.040000 0
0.140000 0.040000 0
0.160000 0.040000 0
0.180000 0.040000 0
0.200000 0.040000 0
0.220000 0.040000 0
0.240000 0.040000 0
0.260000 0.040000 0
0.280000 0.040000 0
0.300000 0.040000 0
0.320000 0.040000 0
0.340000 0.040000 0
0.360000 0.040000 0
0.380000 0.040000 0
0.400000 0.040000 0
0.420000 0.040000 0
0.440000 0.040000 0
0.460000 0.040000 0
0.480000 0.040000 0
0.500000 0.040000 0
0.520000 0.040000 0
0.540000 0.040000 0
0.560000 0.040000 0
0.580000 0.040000 0
0.600000 0.040000 0
0.620000 0.040000 0
0.640000 0.040000 0
0.660000 0.040000 0
0.680000 0.040000 0
0.700000 0.040000 0
0.720000 0.040000 0
0.740000 0.040000 0
0.760000 0.040000 0
0.780000 0.040000 0
0.800000 0.040000 0
0.820000 0.040000 0
0.840000 0.040000 0
0.860000 0.040000 0
0.880000 0.040000 0
0.900000 0.040000 0
0.920000 0.040000 0
0.940000 0.040000 0
0.960000 0.040000 0
0.980000 0.040000 0
1.000000 0.040000 0
0.000000 0.060000 0
0.020000 0.060000 0
0.040000 0.060000 0
0.060000 0.060000 0
0.080000 0.060000 0
0.100000 0.060000 0
0.120000 0.060000 0
0.140000 0.060000 0
0.160000 0.060000 0
0.180000 0.060000 0
0.200000 0.060000 0
0.220000 0.060000 0
0.240000 0.060000 0
0.260000 0.060000 0
0.280000 0.060000 0
0.300000 0.060000 0
0.320000 0.060000 0
0.340000 0.060000 0
0.360000 0.060000 0
0.380000 0.060000 0
0.400000 0.060000 0
0.420000 0.060000 0
0.440000 0.060000 0
0.460000 0.060000 0
0.480000 0.060000 0
0.500000 0.060000 0
0.520000 0.060000 0
0.540000 0.060000 0
0.560000 0.060000 0
0.580000 0.060000 0
0.600000 0.060000 0
0.620000 0.060000 0
0.640000 0.060000 0
0.660000 0.060000 0
0.680000 0.060000 0
0.700000 0.060000 0
0.720000 0.060000 0
0.740000 0.060000 0
0.760000 0.060000 0
0.780000 0.060000 0
0.800000 0.060000 0
0.820000 0.060000 0
0.840000 0.060000 0
0.860000 0.060000 0
0.880000 0.060000 0
0.900000 0.060000 0
0.920000 0.060000 0
0.940000 0.060000 0
0.960000 0.060000 0
0.980000 0.060000 0
1.000000 0.060000 0
0.000000 0.080000 0
0.020000 0.080000 0
0.040000 0.080000 0
0.060000 0.080000 0
0.080000 0.080000 0
0.100000 0.080000 0
0.120000 0.080000 0
0.140000 0.080000 0
0.160000 0.080000 0
0.180000 0.080000 0
0.200000 0.080000 0
0.220000 0.080000 0
0.240000 0.080000 0
0.260000 0.080000 0
0.280000 0.080000 0
0.300000 0.080000 0
0.320000 0.080000 0
0.340000 0.080000 0
0.360000 0.080000 0
0.380000 0.080000 0
0.400000 0.080000 0
0.420000 0.080000 0
0.440000 0.080000 0
0.460000 0.080000 0
0.480000 0.080000 0
0.500000 0.080000 0
0.520000 0.080000 0
0.540000 0.080000 0
0.560000 0.080000 0
0.580000 0.080000 0
0.600000 0.080000 0
0.620000 0.080000 0
0.640000 0.080000 0
0.660000 0.080000 0
0.680000 0.080000 0
0.700000 0.080000 0
0.720000 0.080000 0
0.740000 0.080000 0
0.760000 0.080000 0
0.780000 0.080000 0
0.800000 0.080000 0
0.820000 0.080000 0
0.840000 0.080000 0
0.860000 0.080000 0
0.880000 0.080000 0
0.900000 0.080000 0
0.920000 0.080000 0
0.940000 0.080000 0
0.960000 0.080000 0
0.980000 0.080000 0
1.000000 0.080000 0
0.000000 0.100000 0
0.020000 0.100000 0
0.040000 0.100000 0
0.060000 0.100000 0
0.080000 0.100000 0
0.100000 0.100000 0
0.120000 0.100000 0
0.140000 0.100000 0
0.160000 0.100000 0
0.180000 0.100000 0
0.200000 0.100000 0
0.220000 0.100000 0
0.240000 0.100000 0
0.260000 0.100000 0
0.280000 0.100000 0
0.300000 0.100000 0
0.320000 0.100000 0
0.340000 0.100000 0
0.360000 0.100000 0
0.380000 0.100000 0
0.400000 0.100000 0
0.420000 0.100000 0
0.440000 0.100000 0
0.460000 0.100000 0
0.480000 0.100000 0
0.500000 0.100000 0
0.520000 0.100000 0
0.540000 0.100000 0
0.560000 0.100000 0
0.580000 0.100000 0
0.600000 0.100000 0
0.620000 0.100000 0
0.640000 0.100000 0
0.660000 0.100000 0
0.680000 0.100000 0
0.700000 0.100000 0
0.720000 0.100000 0
0.740000 0.100000 0
0.760000 0.100000 0
0.780000 0.100000 0
0.800000 0.100000 0
0.820000 0.100000 0
0.840000 0.100000 0
0.860000 0.100000 0
0.880000 0.100000 0
0.900000 0.100000 0
0.920000 0.100000 0
0.940000 0.100000 0
0.960000 0.100000 0
0.980000 0.100000 0
1.000000 0.100000 0
0.000000 0.120000 0
0.020000 0.120000 0
0.040000 0.120000 0
0.060000 0.120000 0
0.080000 0.120000 0
0.100000 0.120000 0
0.120000 0.120000 0
0.140000 0.120000 0
0.160000 0.120000 0
0.180000 0.120000 0
0.200000 0.120000 0
0.220000 0.120000 0
0.240000 0.120000 0
0.260000 0.120000 0
0.280000 0.120000 0
0.300000 0.120000 0
0.320000 0.120000 0
0.340000 0.120000 0
0.360000 0.120000 0
0.380000 0.120000 0
0.400000 0.120000 0
0.420000 0.120000 0
0.440000 0.120000 0
0.460000 0.120000 0
0.480000 0.120000 0
0.500000 0.120000 0
0.520000 0.120000 0
0.540000 0.120000 0
0.560000 0.120000 0
0.580000 0.120000 0
0.600000 0.120000 0
0.620000 0.120000 0
0.640000 0.120000 0
0.660000 0.120000 0
0.680000 0.120000 0
0.700000 0.120000 0
0.720000 0.120000 0
0.740000 0.120000 0
0.760000 0.120000 0
0.780000 0.120000 0
0.800000 0.120000 0
0.820000 0.120000 0
0.840000 0.120000 0
0.860000 0.120000 0
0.880000 0.120000 0
0.900000 0.120000 0
0.920000 0.120000 0
0.940000 0.120000 0
0.960000 0.120000 0
0.980000 0.120000 0
1.000000 0.120000 0
0.000000 0.140000 0
0.020000 0.140000 0
0.040000 0.140000 0
0.060000 0.140000 0
0.080000 0.140000 0
0.100000 0.140000 0
0.120000 0.140000 0
0.140000 0.140000 0
0.160000 0.140000 0
0.180000 0.140000 0
0.200000 0.140000 0
0.220000 0.140000 0
0.240000 0.140000 0
0.260000 0.140000 0
0.280000 0.140000 0
0.300000 0.140000 0
0.320000 0.140000 0
0.340000 0.140000 0
0.360000 0.140000 0
0.380000 0.140000 0
0.400000 0.140000 0
0.420000 0.140000 0
0.440000 0.140000 0
0.460000 0.140000 0
0.480000 0.140000 0
0.500000 0.140000 0
0.520000 0.140000 0
0.540000 0.140000 0
0.560000 0.140000 0
0.580000 0.140000 0
0.600000 0.140000 0
0.620000 0.140000 0
0.640000 0.140000 0
0.660000 0.140000 0
0.680000 0.140000 0
0.700000 0.140000 0
0.720000 0.140000 0
0.740000 0.140000 0
0.760000 0.140000 0
0.780000 0.140000 0
0.800000 0.140000 0
0.820000 0.140000 0
0.840000 0.140000 0
0.860000 0.140000 0
0.880000 0.140000 0
0.900000 0.140000 0
0.920000 0.140000 0
0.940000 0.140000 0
0.960000 0.140000 0
0.980000 0.140000 0
1.000000 0.140000 0
0.000000 0.160000 0
0.020000 0.160000 0
0.040000 0.160000 0
0.060000 0.160000 0
0.080000 0.160000 0
0.100000 0.160000 0
0.120000 0.160000 0
0.140000 0.160000 0
0.160000 0.160000 0
0.180000 0.160000 0
0.200000 0.160000 0
0.220000 0.160000 0
0.240000 0.160000 0
0.260000 0.160000 0
0.280000 0.160000 0
0.300000 0.160000 0
0.320000 0.160000 0
0.340000 0.160000 0
0.360000 0.160000 0
0.380000 0.160000 0
0.400000 0.160000 0
0.420000 0.160000 0
0.440000 0.160000 0
0.460000 0.160000 0
0.480000 0.160000 0
0.500000 0.160000 0
0.520000 0.160000 0
0.540000 0.160000 0
0.560000 0.160000 0
0.580000 0.160000 0
0.600000 0.160000 0
0.620000 0.160000 0
0.640000 0.160000 0
0.660000 0.160000 0
0.680000 0.160000 0
0.700000 0.160000 0
0.720000 0.160000 0
0.740000 0.160000 0
0.760000 0.160000 0
0.780000 0.160000 0
0.800000 0.160000 0
0.820000 0.160000 0
0.840000 0.160000 0
0.860000 0.160000 0
0.880000 0.160000 0
0.900000 0.160000 0
0.920000 0.160000 0
0.940000 0.160000 0
0.960000 0.160000 0
0.980000 0.160000 0
1.000000 0.160000 0
0.000000 0.180000 0
0.020000 0.180000 0
0.040000 0.180000 0
0.060000 0.180000 0
0.080000 0.180000 0
0.100000 0.180000 0
0.120000 0.180000 0
0.140000 0.180000 0
0.160000 0.180000 0
0.180000 0.180000 0
0.200000 0.180000 0
0.220000 0.180000 0
0.240000 0.180000 0
0.260000 0.180000 0
0.280000 0.180000 0
0.300000 0.180000 0
0.320000 0.180000 0
0.340000 0.180000 0
0.360000 0.180000 0
0.380000 0.180000 0
0.400000 0.180000 0
0.420000 0.180000 0
0.440000 0.180000 0
0.460000 0.180000 0
0.480000 0.180000 0
0.500000 0.180000 0
0.520000 0.180000 0
0.540000 0.180000 0
0.560000 0.180000 0
0.580000 0.180000 0
0.600000 0.180000 0
0.620000 0.180000 0
[...]
POINT_DATA 2601 

VECTORS velocity float
0.000000 0.000000 0
-0.000002 0.000000 0
-0.000005 0.000000 0
-0.000007 0.000000 0
-0.000010 0.000000 0
-0.000012 0.000000 0
-0.000012 0.000000 0
-0.000012 0.000000 0
-0.000009 0.000000 0
-0.000005 0.000000 0
0.000000 0.000000 0
0.000006 0.000000 0
0.000010 0.000000 0
0.000013 0.000000 0
0.000014 0.000000 0
0.000013 0.000000 0
0.000013 0.000000 0
0.000011 0.000000 0
0.000009 0.000000 0
0.000006 0.000000 0
0.000004 0.000000 0
0.000001 0.000000 0
-0.000002 0.000000 0
-0.000004 0.000000 0
-0.000006 0.000000 0
-0.000006 0.000000 0
-0.000006 0.000000 0
-0.000004 0.000000 0
-0.000002 0.000000 0
-0.000001 0.000000 0
0.000000 0.000000 0
0.000000 0.000000 0
0.000001 0.000000 0
0.000001 0.000000 0
0.000001 0.000000 0
0.000001 0.000000 0
0.000001 0.000000 0
0.000002 0.000000 0
0.000002 0.000000 0
0.000002 0.000000 0
0.000002 0.000000 0
0.000002 0.000000 0
0.000001 0.000000 0
0.000001 0.000000 0
0.000001 0.000000 0
0.000001 0.000000 0
0.000001 0.000000 0
0.000000 0.000000 0
0.000000 0.000000 0
-0.000000 0.000000 0
0.000000 0.000000 0
0.000000 0.000002 0
-0.006594 0.004991 0
-0.014895 0.003512 0
-0.018002 -0.001142 0
-0.015386 -0.005861 0
-0.007681 -0.010100 0
0.004751 -0.013521 0
0.021335 -0.015857 0
0.041029 -0.016736 0
0.062331 -0.015874 0
0.083608 -0.013479 0
0.103111 -0.009970 0
0.119176 -0.005993 0
0.130573 -0.002276 0
0.136724 0.000670 0
0.137758 0.002884 0
0.134480 0.004658 0
0.127841 0.006153 0
0.118526 0.007475 0
0.107048 0.008669 0
0.093850 0.009711 0
0.079390 0.010513 0
0.064202 0.010938 0
0.048917 0.010849 0
0.034232 0.010154 0
0.020857 0.008837 0
0.009459 0.006936 0
0.000656 0.004539 0
-0.004970 0.002238 0
-0.007681 0.000704 0
-0.008672 -0.000028 0
-0.008883 -0.000235 0
-0.008870 -0.000195 0
-0.008882 -0.000080 0
-0.008986 0.000022 0
-0.009161 0.000079 0
-0.009352 0.000084 0
-0.009498 0.000046 0
-0.009541 -0.000028 0
-0.009433 -0.000130 0
-0.009134 -0.000251 0
-0.008618 -0.000381 0
-0.007877 -0.000509 0
-0.006923 -0.000623 0
-0.005787 -0.000712 0
-0.004523 -0.000760 0
-0.003210 -0.000750 0
-0.001956 -0.000661 0
-0.000900 -0.000466 0
-0.000204 -0.000179 0
0.000000 -0.000000 0
0.000000 0.000005 0
-0.009997 0.014893 0
-0.022602 0.011406 0
-0.029456 0.000489 0
-0.029903 -0.010321 0
-0.025067 -0.020137 0
-0.015252 -0.029018 0
-0.000446 -0.036279 0
0.019129 -0.040997 0
0.043014 -0.042580 0
0.069930 -0.040781 0
0.098278 -0.035569 0
0.125764 -0.027463 0
0.149844 -0.017549 0
0.168114 -0.007185 0
0.178823 0.002244 0
0.181411 0.009917 0
0.176797 0.015954 0
0.166521 0.020793 0
0.151903 0.024675 0
0.134115 0.027658 0
0.114260 0.029648 0
0.093393 0.030473 0
0.072513 0.029970 0
0.052526 0.028059 0
0.034226 0.024773 0
0.018294 0.020202 0
0.005320 0.014429 0
-0.004153 0.008336 0
-0.009595 0.003702 0
-0.012298 0.001202 0
-0.013534 0.000198 0
-0.014150 -0.000001 0
-0.014585 0.000116 0
-0.015007 0.000279 0
-0.015441 0.000367 0
-0.015843 0.000337 0
-0.016137 0.000189 0
-0.016245 -0.000065 0
-0.016093 -0.000407 0
-0.015619 -0.000815 0
-0.014781 -0.001257 0
-0.013565 -0.001695 0
-0.011990 -0.002090 0
-0.010109 -0.002400 0
-0.008010 -0.002577 0
-0.005820 -0.002567 0
-0.003705 -0.002310 0
-0.001869 -0.001752 0
-0.000547 -0.000900 0
0.000000 0.000000 0
0.000000 0.000008 0
-0.011335 0.027592 0
-0.026639 0.022971 0
-0.036920 0.006159 0
-0.041206 -0.010250 0
-0.040658 -0.024752 0
-0.035884 -0.038142 0
-0.026872 -0.050238 0
-0.013337 -0.060197 0
0.005061 -0.066675 0
0.028325 -0.068742 0
0.055586 -0.065805 0
0.085318 -0.057559 0
0.115244 -0.044625 0
0.142576 -0.028309 0
0.164257 -0.010414 0
0.177743 0.006684 0
0.181381 0.021043 0
0.176386 0.032369 0
0.164493 0.041075 0
0.147547 0.047354 0
0.127357 0.051234 0
0.105564 0.052684 0
0.083549 0.051716 0
0.062400 0.048441 0
0.042935 0.043069 0
0.025750 0.035842 0
0.011264 0.026986 0
-0.000261 0.017153 0
-0.008131 0.008849 0
-0.012575 0.003911 0
-0.014987 0.001618 0
-0.016391 0.000857 0
-0.017362 0.000777 0
-0.018166 0.000879 0
-0.018882 0.000915 0
-0.019490 0.000780 0
-0.019924 0.000448 0
-0.020098 -0.000072 0
-0.019930 -0.000756 0
-0.019349 -0.001564 0
-0.018311 -0.002435 0
-0.016808 -0.003299 0
-0.014867 -0.004079 0
-0.012560 -0.004692 0
-0.009998 -0.005049 0
-0.007330 -0.005055 0
-0.004745 -0.004611 0
-0.002466 -0.003624 0
-0.000765 -0.002048 0
0.000000 0.000001 0
0.000000 0.000010 0
-0.011260 0.041531 0
-0.027924 0.036991 0
-0.040684 0.015057 0
-0.047945 -0.006584 0
-0.050553 -0.025460 0
-0.049369 -0.042804 0
-0.044527 -0.058827 0
-0.036017 -0.072930 0
-0.023573 -0.084242 0
-0.006643 -0.091305 0
0.014844 -0.092562 0
0.040680 -0.087121 0
0.069277 -0.074807 0
0.098662 -0.056199 0
0.125691 -0.032923 0
0.147404 -0.007207 0
0.160551 0.017311 0
0.163270 0.037681 0
0.157223 0.053514 0
0.144478 0.064794 0
0.127270 0.071631 0
0.107652 0.074281 0
0.087288 0.073133 0
0.067409 0.068673 0
0.048861 0.061423 0
0.032192 0.051873 0
0.017705 0.040441 0
0.005514 0.027732 0
-0.004196 0.016015 0
-0.010415 0.008058 0
-0.014040 0.004014 0
-0.016228 0.002374 0
-0.017703 0.001892 0
-0.018837 0.001799 0
-0.019771 0.001691 0
-0.020522 0.001379 0
-0.021039 0.000797 0
-0.021240 -0.000059 0
-0.021042 -0.001156 0
-0.020380 -0.002434 0
-0.019221 -0.003798 0
-0.017567 -0.005139 0
-0.015466 -0.006338 0
-0.013004 -0.007270 0
-0.010306 -0.007808 0
-0.007532 -0.007820 0
-0.004869 -0.007173 0
-0.002533 -0.005731 0
-0.000787 -0.003366 0
0.000000 0.000001 0
0.000000 0.000011 0
-0.010183 0.055515 0
-0.027085 0.052395 0
-0.041492 0.026180 0
-0.050851 -0.000382 0
-0.055785 -0.023329 0
-0.057341 -0.044168 0
-0.055812 -0.063590 0
-0.051218 -0.081152 0
-0.043438 -0.096049 0
-0.032322 -0.107159 0
-0.017333 -0.113128 0
0.001950 -0.111992 0
0.025464 -0.102607 0
0.052155 -0.084724 0
0.079508 -0.059157 0
0.104850 -0.028177 0
0.124568 0.005177 0
0.134494 0.035697 0
0.135225 0.059868 0
0.128567 0.077307 0
0.116744 0.088059 0
0.101784 0.092665 0
0.085337 0.091959 0
0.068643 0.086868 0
0.052571 0.078286 0
0.037675 0.066998 0
0.024243 0.053664 0
0.012331 0.039054 0
0.001918 0.024779 0
-0.006061 0.013755 0
-0.011038 0.007430 0
-0.014068 0.004520 0
-0.016024 0.003386 0
-0.017413 0.002947 0
-0.018472 0.002600 0
-0.019270 0.002047 0
-0.019785 0.001165 0
-0.019953 -0.000068 0
-0.019700 -0.001615 0
-0.018977 -0.003386 0
-0.017769 -0.005249 0
-0.016097 -0.007055 0
-0.014027 -0.008643 0
-0.011658 -0.009851 0
-0.009121 -0.010520 0
-0.006570 -0.010492 0
-0.004176 -0.009611 0
-0.002128 -0.007706 0
-0.000641 -0.004581 0
0.000000 0.000002 0
0.000000 0.000012 0
-0.008429 0.068615 0
-0.024602 0.068300 0
-0.039972 0.038823 0
-0.050849 0.007708 0
-0.057618 -0.018970 0
-0.061352 -0.042777 0
-0.062652 -0.064951 0
-0.061611 -0.085304 0
-0.058138 -0.103138 0
-0.052028 -0.117411 0
-0.042960 -0.126833 0
-0.030585 -0.129919 0
-0.014104 -0.125013 0
0.006377 -0.110243 0
0.030451 -0.085618 0
0.056053 -0.052267 0
0.078815 -0.012333 0
0.095453 0.027023 0
0.102398 0.059441 0
0.102419 0.083275 0
0.097478 0.098414 0
0.089011 0.105688 0
0.078278 0.106274 0
0.066346 0.101439 0
0.054047 0.092391 0
0.041973 0.080201 0
0.030460 0.065785 0
0.019620 0.050056 0
0.009507 0.034408 0
0.000585 0.021015 0
-0.005933 0.012021 0
-0.009999 0.007360 0
-0.012521 0.005237 0
-0.014163 0.004247 0
-0.015292 0.003548 0
-0.016065 0.002692 0
-0.016511 0.001479 0
-0.016599 -0.000144 0
-0.016285 -0.002132 0
-0.015545 -0.004365 0
-0.014385 -0.006678 0
-0.012846 -0.008880 0
-0.011004 -0.010777 0
-0.008963 -0.012176 0
-0.006846 -0.012895 0
-0.004788 -0.012764 0
-0.002932 -0.011615 0
-0.001421 -0.009267 0
-0.000395 -0.005494 0
0.000000 0.000002 0
0.000000 0.000011 0
-0.006296 0.080117 0
-0.020903 0.083938 0
-0.036661 0.052426 0
-0.048691 0.017264 0
-0.056911 -0.012826 0
-0.062345 -0.039135 0
-0.065997 -0.063332 0
-0.068096 -0.085667 0
-0.068634 -0.105631 0
-0.067414 -0.122337 0
-0.064052 -0.134571 0
-0.058063 -0.140849 0
-0.048898 -0.139570 0
-0.035985 -0.129279 0
-0.018539 -0.108833 0
0.002550 -0.076542 0
0.025952 -0.034224 0
0.049056 0.012114 0
0.061856 0.052902 0
0.068724 0.082227 0
0.071411 0.101467 0
0.070456 0.111865 0
0.066584 0.114623 0
0.060548 0.111098 0
0.053056 0.102659 0
0.044705 0.090585 0
0.035902 0.076016 0
0.026868 0.060007 0
0.017759 0.043814 0
0.009003 0.029196 0
0.001490 0.018014 0
-0.003811 0.011108 0
-0.007155 0.007549 0
-0.009176 0.005717 0
-0.010423 0.004502 0
-0.011171 0.003266 0
-0.011536 0.001699 0
-0.011546 -0.000294 0
-0.011206 -0.002670 0
-0.010528 -0.005286 0
-0.009542 -0.007948 0
-0.008303 -0.010435 0
-0.006889 -0.012525 0
-0.005390 -0.014010 0
-0.003908 -0.014695 0
-0.002546 -0.014406 0
-0.001409 -0.012978 0
-0.000583 -0.010242 0
-0.000118 -0.006002 0
0.000000 0.000003 0
0.000000 0.000011 0
-0.004066 0.089518 0
-0.016398 0.098665 0
-0.032014 0.066611 0
-0.044993 0.027958 0
-0.054324 -0.005316 0
-0.061113 -0.033692 0
-0.066672 -0.059201 0
-0.071430 -0.082668 0
-0.075513 -0.103820 0
-0.078819 -0.121992 0
-0.081006 -0.136184 0
-0.081483 -0.145073 0
-0.079439 -0.147092 0
-0.073991 -0.140603 0
-0.064401 -0.124153 0
-0.050243 -0.096758 0
-0.030481 -0.058840 0
-0.007176 -0.008882 0
0.015176 0.039773 0
0.030573 0.073720 0
0.041079 0.096681 0
0.047649 0.110516 0
0.050956 0.116182 0
0.051376 0.114966 0
0.049370 0.108233 0
0.045461 0.097355 0
0.040073 0.083622 0
0.033535 0.068199 0
0.026119 0.052273 0
0.018267 0.037284 0
0.010782 0.024835 0
0.004617 0.016004 0
0.000326 0.010601 0
-0.002349 0.007515 0
-0.003910 0.005544 0
-0.004750 0.003805 0
-0.005109 0.001854 0
-0.005113 -0.000474 0
-0.004835 -0.003150 0
-0.004338 -0.006029 0
-0.003677 -0.008902 0
-0.002913 -0.011533 0
-0.002110 -0.013690 0
-0.001335 -0.015157 0
-0.000652 -0.015739 0
-0.000125 -0.015263 0
0.000191 -0.013578 0
0.000269 -0.010557 0
0.000150 -0.006077 0
0.000000 0.000003 0
0.000000 0.000010 0
-0.001996 0.096514 0
-0.011474 0.111886 0
-0.026348 0.081020 0
-0.040092 0.039574 0
-0.050387 0.003294 0
-0.058358 -0.026788 0
-0.065452 -0.053015 0
-0.072400 -0.076826 0
-0.079470 -0.098242 0
-0.086690 -0.116844 0
-0.093829 -0.131909 0
-0.100351 -0.142416 0
-0.105375 -0.147061 0
-0.107707 -0.144317 0
-0.105963 -0.132582 0
-0.098803 -0.110462 0
-0.085180 -0.077292 0
-0.065203 -0.033543 0
-0.036584 0.015153 0
-0.011695 0.056323 0
0.007400 0.084390 0
0.022106 0.101989 0
0.032398 0.110896 0
0.039227 0.112684 0
0.042937 0.108574 0
0.043920 0.099882 0
0.042510 0.087942 0
0.039086 0.073960 0
0.034008 0.059082 0
0.027759 0.044533 0
0.021061 0.031665 0
0.014836 0.021564 0
0.009883 0.014515 0
0.006442 0.009953 0
0.004334 0.006903 0
0.003177 0.004464 0
0.002631 0.002063 0
0.002459 -0.000567 0
0.002511 -0.003444 0
0.002660 -0.006444 0
0.002827 -0.009373 0
0.002950 -0.012002 0
0.002986 -0.014104 0
0.002905 -0.015468 0
0.002684 -0.015905 0
0.002304 -0.015249 0
0.001759 -0.013371 0
0.001080 -0.010202 0
0.000395 -0.005733 0
0.000000 0.000003 0
0.000000 0.000010 0
-0.000299 0.100991 0
-0.006503 0.123017 0
-0.019938 0.095228 0
-0.034232 0.051997 0
-0.045525 0.012950 0
-0.054662 -0.018627 0
-0.062987 -0.045160 0
-0.071722 -0.068649 0
-0.081250 -0.089530 0
-0.091688 -0.107634 0
-0.102914 -0.122524 0
-0.114510 -0.133527 0
-0.125688 -0.139736 0
-0.135222 -0.140015 0
-0.141428 -0.133058 0
-0.142229 -0.117542 0
-0.135381 -0.092439 0
-0.118970 -0.057477 0
-0.091945 -0.013736 0
-0.058459 0.029735 0
-0.029764 0.062880 0
-0.006572 0.085518 0
0.011265 0.099061 0
0.024614 0.104427 0
0.033930 0.103542 0
0.039949 0.097783 0
0.042860 0.088455 0
0.043043 0.076700 0
0.040863 0.063599 0
0.036850 0.050231 0
0.031656 0.037759 0
0.026090 0.027182 0
0.021020 0.018994 0
0.017037 0.013065 0
0.014296 0.008809 0
0.012589 0.005508 0
0.011584 0.002572 0
0.010977 -0.000354 0
0.010553 -0.003351 0
0.010142 -0.006345 0
0.009637 -0.009191 0
0.008976 -0.011692 0
0.008134 -0.013645 0
0.007117 -0.014854 0
0.005943 -0.015138 0
0.004637 -0.014338 0
0.003235 -0.012354 0
0.001822 -0.009194 0
0.000609 -0.004997 0
0.000000 0.000003 0
0.000000 0.000009 0
0.000992 0.103017 0
-0.001881 0.131524 0
-0.013117 0.108748 0
-0.027646 0.065161 0
-0.040039 0.023725 0
-0.050265 -0.009325 0
-0.059701 -0.035955 0
-0.069944 -0.058564 0
-0.081498 -0.078277 0
-0.094513 -0.095180 0
-0.108913 -0.109086 0
-0.124371 -0.119642 0
-0.140234 -0.126350 0
-0.155429 -0.128578 0
-0.168371 -0.125574 0
-0.176905 -0.116509 0
-0.178380 -0.100551 0
-0.169955 -0.076979 0
-0.149221 -0.045358 0
-0.115218 -0.005858 0
-0.075730 0.032503 0
-0.041124 0.060958 0
-0.013930 0.079711 0
0.007174 0.090020 0
0.022541 0.093239 0
0.033602 0.090951 0
0.040935 0.084847 0
0.045046 0.075958 0
0.046189 0.065276 0
0.044949 0.053741 0
0.041877 0.042424 0
0.037626 0.032198 0
0.033045 0.023567 0
0.028920 0.016678 0
0.025663 0.011352 0
0.023287 0.007176 0
0.021570 0.003674 0
0.020231 0.000464 0
0.019028 -0.002609 0
0.017820 -0.005528 0
0.016468 -0.008206 0
0.014901 -0.010499 0
0.013108 -0.012244 0
0.011120 -0.013276 0
0.008989 -0.013425 0
0.006777 -0.012540 0
0.004559 -0.010557 0
0.002468 -0.007576 0
0.000785 -0.003910 0
0.000000 0.000003 0
0.000000 0.000009 0
0.001993 0.102872 0
0.002016 0.137127 0
-0.006273 0.120993 0
-0.020490 0.078919 0
-0.033939 0.035569 0
-0.045162 0.001035 0
-0.055844 -0.025481 0
-0.067430 -0.046853 0
-0.080682 -0.064961 0
-0.095742 -0.080219 0
-0.112506 -0.092666 0
-0.130658 -0.102207 0
-0.149632 -0.108678 0
-0.168549 -0.111878 0
-0.186141 -0.111583 0
-0.200684 -0.107533 0
-0.209982 -0.099389 0
-0.211443 -0.086637 0
-0.202271 -0.068473 0
-0.179838 -0.043757 0
-0.142301 -0.011214 0
-0.097285 0.023718 0
-0.053512 0.050764 0
-0.018818 0.067957 0
0.006659 0.077114 0
0.024730 0.079387 0
0.036729 0.077011 0
0.044955 0.071447 0
0.049628 0.063696 0
0.051573 0.054542 0
0.051103 0.045082 0
0.048651 0.036015 0
0.045070 0.027701 0
0.041277 0.020446 0
0.037790 0.014442 0
0.034770 0.009602 0
0.032169 0.005627 0
0.029852 0.002188 0
0.027633 -0.000940 0
0.025388 -0.003785 0
0.023017 -0.006272 0
0.020439 -0.008332 0
0.017650 -0.009863 0
0.014700 -0.010735 0
0.011660 -0.010796 0
0.008615 -0.009908 0
0.005667 -0.008045 0
0.002991 -0.005420 0
0.000920 -0.002528 0
0.000000 0.000003 0
0.000000 0.000008 0
0.002739 0.101001 0
0.004970 0.139790 0
0.000184 0.131254 0
-0.012966 0.092827 0
-0.027258 0.048396 0
-0.039545 0.012579 0
-0.051556 -0.013687 0
-0.064374 -0.033725 0
-0.079058 -0.049965 0
-0.095735 -0.063356 0
-0.114206 -0.074170 0
-0.134106 -0.082516 0
-0.154884 -0.088459 0
-0.175803 -0.092069 0
-0.195914 -0.093440 0
-0.214043 -0.092669 0
-0.228782 -0.089792 0
-0.238462 -0.084690 0
-0.241101 -0.076963 0
-0.234330 -0.065828 0
-0.215324 -0.050051 0
-0.180980 -0.027830 0
-0.134700 0.001244 0
-0.084547 0.029848 0
-0.037564 0.049690 0
-0.000620 0.060881 0
0.025037 0.064623 0
0.040920 0.063059 0
0.050216 0.058658 0
0.056035 0.052267 0
0.058562 0.045347 0
0.058139 0.038231 0
0.055881 0.030941 0
0.052877 0.023959 0
0.049504 0.017860 0
0.045958 0.012797 0
0.042409 0.008592 0
0.038989 0.005000 0
0.035669 0.001855 0
0.032305 -0.000913 0
0.028810 -0.003257 0
0.025168 -0.005132 0
0.021405 -0.006505 0
0.017572 -0.007286 0
0.013741 -0.007340 0
0.010003 -0.006548 0
0.006478 -0.004933 0
0.003360 -0.002829 0
0.001011 -0.000919 0
0.000000 0.000002 0
0.000000 0.000008 0
0.003240 0.097901 0
0.007047 0.139681 0
0.005577 0.138930 0
-0.005336 0.106361 0
-0.020186 0.062148 0
-0.033520 0.025333 0
-0.046491 -0.000653 0
-0.060710 -0.019351 0
-0.076667 -0.033600 0
-0.094628 -0.045071 0
-0.114291 -0.054295 0
-0.135240 -0.061529 0
-0.156915 -0.066981 0
-0.178667 -0.070849 0
-0.199780 -0.073343 0
-0.219489 -0.074665 0
-0.236991 -0.074971 0
-0.251429 -0.074317 0
-0.261820 -0.072605 0
-0.266932 -0.069534 0
-0.265114 -0.064564 0
-0.254101 -0.056905 0
-0.230731 -0.045669 0
-0.192724 -0.029179 0
-0.144827 -0.006814 0
-0.093497 0.016787 0
-0.044170 0.035471 0
-0.003014 0.046268 0
0.027530 0.048582 0
0.046740 0.046195 0
0.057069 0.042977 0
0.061003 0.038696 0
0.061455 0.032963 0
0.060386 0.026823 0
0.057843 0.021361 0
0.054167 0.016697 0
0.049917 0.012596 0
0.045619 0.008928 0
0.041397 0.005745 0
0.037137 0.003075 0
0.032740 0.000865 0
0.028240 -0.000927 0
0.023712 -0.002267 0
0.019232 -0.003072 0
0.014866 -0.003228 0
0.010693 -0.002645 0
0.006839 -0.001402 0
0.003513 0.000047 0
0.001058 0.000832 0
0.000000 0.000002 0
0.000000 0.000008 0
0.003537 0.093954 0
0.008399 0.137453 0
0.009441 0.143637 0
0.001875 0.118591 0
-0.012918 0.076580 0
-0.027187 0.038883 0
-0.040768 0.013503 0
-0.056038 -0.003549 0
-0.073343 -0.016047 0
-0.092361 -0.025732 0
-0.112814 -0.033559 0
-0.134315 -0.039893 0
-0.156315 -0.045031 0
-0.178243 -0.049204 0
-0.199546 -0.052619 0
-0.219720 -0.055457 0
-0.238292 -0.057851 0
-0.254818 -0.059861 0
-0.268851 -0.061460 0
-0.279878 -0.062534 0
-0.287230 -0.062881 0
-0.289989 -0.062212 0
-0.286882 -0.060133 0
-0.276320 -0.056055 0
-0.255609 -0.049536 0
-0.222786 -0.039776 0
-0.180152 -0.025861 0
-0.132199 -0.008641 0
-0.084209 0.008904 0
-0.041668 0.022728 0
-0.006315 0.031084 0
0.020715 0.033845 0
0.038402 0.031558 0
0.047446 0.027571 0
0.050737 0.024078 0
0.050285 0.020724 0
0.047748 0.017140 0
0.044440 0.013520 0
0.040683 0.010337 0
0.036548 0.007744 0
0.032131 0.005640 0
0.027570 0.003896 0
0.023013 0.002503 0
0.018548 0.001560 0
0.014231 0.001199 0
0.010154 0.001479 0
0.006458 0.002247 0
0.003338 0.002952 0
0.001045 0.002594 0
0.000000 0.000001 0
0.000000 0.000008 0
0.003663 0.089502 0
0.009134 0.133778 0
0.011930 0.145453 0
0.007696 0.128719 0
-0.005688 0.091210 0
-0.020842 0.053184 0
-0.035115 0.028199 0
-0.050679 0.013224 0
-0.068598 0.002723 0
-0.088357 -0.005600 0
-0.109458 -0.012341 0
-0.131270 -0.018027 0
-0.153291 -0.023053 0
-0.175064 -0.027618 0
-0.196199 -0.031866 0
-0.216372 -0.035919 0
-0.235280 -0.039873 0
-0.252652 -0.043757 0
-0.268242 -0.047545 0
-0.281783 -0.051155 0
-0.292960 -0.054452 0
-0.301402 -0.057253 0
-0.306661 -0.059337 0
-0.308174 -0.060451 0
-0.305142 -0.060347 0
-0.296805 -0.058670 0
-0.281811 -0.055116 0
-0.258673 -0.049675 0
-0.227026 -0.041949 0
-0.188571 -0.031698 0
-0.147082 -0.019406 0
-0.105889 -0.006020 0
-0.068675 0.006232 0
-0.038162 0.014488 0
-0.014278 0.018523 0
0.003220 0.019686 0
0.014655 0.018441 0
0.020520 0.015993 0
0.022718 0.013637 0
0.022605 0.011627 0
0.021128 0.009842 0
0.018874 0.008191 0
0.016213 0.006755 0
0.013323 0.005710 0
0.010334 0.005166 0
0.007416 0.005128 0
0.004768 0.005414 0
0.002546 0.005461 0
0.000870 0.004170 0
0.000000 0.000001 0
0.000000 0.000008 0
0.003649 0.084820 0
0.009377 0.129186 0
0.013296 0.145074 0
0.011603 0.136209 0
0.001012 0.105119 0
-0.014727 0.068310 0
-0.029823 0.043339 0
-0.045668 0.029934 0
-0.063431 0.021632 0
-0.083074 0.015129 0
-0.103938 0.009355 0
-0.125410 0.003940 0
-0.147106 -0.001237 0
-0.168668 -0.006296 0
-0.189731 -0.011310 0
-0.209921 -0.016375 0
-0.228972 -0.021571 0
-0.246726 -0.026899 0
-0.263083 -0.032329 0
-0.277891 -0.037816 0
-0.290926 -0.043262 0
-0.301928 -0.048511 0
-0.310586 -0.053361 0
-0.316574 -0.057573 0
-0.319557 -0.060904 0
-0.319231 -0.063107 0
-0.315203 -0.063993 0
-0.307148 -0.063425 0
-0.294919 -0.061198 0
-0.278007 -0.057217 0
-0.256112 -0.051598 0
-0.229167 -0.044562 0
-0.197712 -0.036168 0
-0.163772 -0.026826 0
-0.130476 -0.017304 0
-0.099708 -0.008209 0
-0.072876 -0.000160 0
-0.050990 0.005457 0
-0.034013 0.008252 0
-0.021307 0.009334 0
-0.012200 0.009371 0
-0.006085 0.008811 0
-0.002381 0.008053 0
-0.000391 0.007440 0
0.000507 0.007106 0
0.000760 0.007045 0
0.000712 0.007117 0
0.000557 0.006849 0
0.000317 0.005141 0
0.000000 0.000000 0
0.000000 0.000008 0
0.003527 0.080124 0
0.009242 0.124131 0
0.013764 0.143227 0
0.013865 0.141004 0
0.006296 0.117540 0
-0.008993 0.084019 0
-0.024854 0.059140 0
-0.041141 0.046832 0
-0.058790 0.040129 0
-0.077769 0.034907 0
-0.097636 0.029995 0
-0.118088 0.025141 0
-0.138815 0.020206 0
-0.159531 0.015008 0
-0.179957 0.009388 0
-0.199837 0.003322 0
-0.218980 -0.003068 0
-0.237174 -0.009646 0
-0.254153 -0.016379 0
-0.269737 -0.023311 0
-0.283894 -0.030415 0
-0.296479 -0.037593 0
-0.307223 -0.044691 0
-0.315795 -0.051481 0
-0.321847 -0.057689 0
-0.325054 -0.063024 0
-0.325137 -0.067199 0
-0.321930 -0.069958 0
-0.315376 -0.071089 0
-0.305429 -0.070506 0
-0.292186 -0.068246 0