# vtk DataFile Version 2.0
generated by CFD-lab course output (written by Tobias Neckel) 
ASCII

DATASET STRUCTURED_GRID
DIMENSIONS  51 51 1 
POINTS 2601 float

0.000000 0.000000 0
0.020000 0.000000 0
0.040000 0.000000 0
0.060000 0.000000 0
0.080000 0.000000 0
0.100000 0.000000 0
0.120000 0.000000 0
0.140000 0.000000 0
0.160000 0.000000 0
0.180000 0.000000 0
0.200000 0.000000 0
0.220000 0.000000 0
0.240000 0.000000 0
0.260000 0.000000 0
0.280000 0.000000 0
0.300000 0.000000 0
0.320000 0.000000 0
0.340000 0.000000 0
0.360000 0.000000 0
0.380000 0.000000 0
0.400000 0.000000 0
0.420000 0.000000 0
0.440000 0.000000 0
0.460000 0.000000 0
0.480000 0.000000 0
0.500000 0.000000 0
0.520000 0.000000 0
0.540000 0.000000 0
0.560000 0.000000 0
0.580000 0.000000 0
0.600000 0.000000 0
0.620000 0.000000 0
0.640000 0.000000 0
0.660000 0.000000 0
0.680000 0.000000 0
0.700000 0.000000 0
0.720000 0.000000 0
0.740000 0.000000 0
0.760000 0.000000 0
0.780000 0.000000 0
0.800000 0.000000 0
0.820000 0.000000 0
0.840000 0.000000 0
0.860000 0.000000 0
0.880000 0.000000 0
0.900000 0.000000 0
0.920000 0.000000 0
0.940000 0.000000 0
0.960000 0.000000 0
0.980000 0.000000 0
1.000000 0.000000 0
0.000000 0.020000 0
0.020000 0.020000 0
0.040000 0.020000 0
0.060000 0.020000 0
0.080000 0.020000 0
0.100000 0.020000 0
0.120000 0.020000 0
0.140000 0.020000 0
0.160000 0.020000 0
0.180000 0.020000 0
0.200000 0.020000 0
0.220000 0.020000 0
0.240000 0.020000 0
0.260000 0.020000 0
0.280000 0.020000 0
0.300000 0.020000 0
0.320000 0.020000 0
0.340000 0.020000 0
0.360000 0.020000 0
0.380000 0.020000 0
0.400000 0.020000 0
0.420000 0.020000 0
0.440000 0.020000 0
0.460000 0.020000 0
0.480000 0.020000 0
0.500000 0.020000 0
0.520000 0.020000 0
0.540000 0.020000 0
0.560000 0.020000 0
0.580000 0.020000 0
0.600000 0.020000 0
0.620000 0.020000 0
0.640000 0.020000 0
0.660000 0.020000 0
0.680000 0.020000 0
0.700000 0.020000 0
0.720000 0.020000 0
0.740000 0.020000 0
0.760000 0.020000 0
0.780000 0.020000 0
0.800000 0.020000 0
0.820000 0.020000 0
0.840000 0.020000 0
0.860000 0.020000 0
0.880000 0.020000 0
0.900000 0.020000 0
0.920000 0.020000 0
0.940000 0.020000 0
0.960000 0.020000 0
0.980000 0.020000 0
1.000000 0.020000 0
0.000000 0.040000 0
0.020000 0.040000 0
0.040000 0.040000 0
0.060000 0.040000 0
0.080000 0.040000 0
0.100000 0.040000 0
0.120000 0.040000 0
0.140000 0.040000 0
0.160000 0.040000 0
0.180000 0.040000 0
0.200000 0.040000 0
0.220000 0.040000 0
0.240000 0.040000 0
0.260000 0.040000 0
0.280000 0.040000 0
0.300000 0.040000 0
0.320000 0.040000 0
0.340000 0.040000 0
0.360000 0.040000 0
0.380000 0.040000 0
0.400000 0.040000 0
0.420000 0.040000 0
0.440000 0.040000 0
0.460000 0.040000 0
0.480000 0.040000 0
0.500000 0.040000 0
0.520000 0.040000 0
0.540000 0.040000 0
0.560000 0.040000 0
0.580000 0.040000 0
0.600000 0.040000 0
0.620000 0.040000 0
0.640000 0.040000 0
0.660000 0.040000 0
0.680000 0.040000 0
0.700000 0.040000 0
0.720000 0.040000 0
0.740000 0.040000 0
0.760000 0.040000 0
0.780000 0.040000 0
0.800000 0.040000 0
0.820000 0.040000 0
0.840000 0.040000 0
0.860000 0.040000 0
0.880000 0.040000 0
0.900000 0.040000 0
0.920000 0.040000 0
0.940000 0.040000 0
0.960000 0.040000 0
0.980000 0.040000 0
1.000000 0.040000 0
0.000000 0.060000 0
0.020000 0.060000 0
0.040000 0.060000 0
0.060000 0.060000 0
0.080000 0.060000 0
0.100000 0.060000 0
0.120000 0.060000 0
0.140000 0.060000 0
0.160000 0.060000 0
0.180000 0.060000 0
0.200000 0.060000 0
0.220000 0.060000 0
0.240000 0.060000 0
0.260000 0.060000 0
0.280000 0.060000 0
0.300000 0.060000 0
0.320000 0.060000 0
0.340000 0.060000 0
0.360000 0.060000 0
0.380000 0.060000 0
0.400000 0.060000 0
0.420000 0.060000 0
0.440000 0.060000 0
0.460000 0.060000 0
0.480000 0.060000 0
0.500000 0.060000 0
0.520000 0.060000 0
0.540000 0.060000 0
0.560000 0.060000 0
0.580000 0.060000 0
0.600000 0.060000 0
0.620000 0.060000 0
0.640000 0.060000 0
0.660000 0.060000 0
0.680000 0.060000 0
0.700000 0.060000 0
0.720000 0.060000 0
0.740000 0.060000 0
0.760000 0.060000 0
0.780000 0.060000 0
0.800000 0.060000 0
0.820000 0.060000 0
0.840000 0.060000 0
0.860000 0.060000 0
0.880000 0.060000 0
0.900000 0.060000 0
0.920000 0.060000 0
0.940000 0.060000 0
0.960000 0.060000 0
0.980000 0.060000 0
1.000000 0.060000 0
0.000000 0.080000 0
0.020000 0.080000 0
0.040000 0.080000 0
0.060000 0.080000 0
0.080000 0.080000 0
0.100000 0.080000 0
0.120000 0.080000 0
0.140000 0.080000 0
0.160000 0.080000 0
0.180000 0.080000 0
0.200000 0.080000 0
0.220000 0.080000 0
0.240000 0.080000 0
0.260000 0.080000 0
0.280000 0.080000 0
0.300000 0.080000 0
0.320000 0.080000 0
0.340000 0.080000 0
0.360000 0.080000 0
0.380000 0.080000 0
0.400000 0.080000 0
0.420000 0.080000 0
0.440000 0.080000 0
0.460000 0.080000 0
0.480000 0.080000 0
0.500000 0.080000 0
0.520000 0.080000 0
0.540000 0.080000 0
0.560000 0.080000 0
0.580000 0.080000 0
0.600000 0.080000 0
0.620000 0.080000 0
0.640000 0.080000 0
0.660000 0.080000 0
0.680000 0.080000 0
0.700000 0.080000 0
0.720000 0.080000 0
0.740000 0.080000 0
0.760000 0.080000 0
0.780000 0.080000 0
0.800000 0.080000 0
0.820000 0.080000 0
0.840000 0.080000 0
0.860000 0.080000 0
0.880000 0.080000 0
0.900000 0.080000 0
0.920000 0.080000 0
0.940000 0.080000 0
0.960000 0.080000 0
0.980000 0.080000 0
1.000000 0.080000 0
0.000000 0.100000 0
0.020000 0.100000 0
0.040000 0.100000 0
0.060000 0.100000 0
0.080000 0.100000 0
0.100000 0.100000 0
0.120000 0.100000 0
0.140000 0.100000 0
0.160000 0.100000 0
0.180000 0.100000 0
0.200000 0.100000 0
0.220000 0.100000 0
0.240000 0.100000 0
0.260000 0.100000 0
0.280000 0.100000 0
0.300000 0.100000 0
0.320000 0.100000 0
0.340000 0.100000 0
0.360000 0.100000 0
0.380000 0.100000 0
0.400000 0.100000 0
0.420000 0.100000 0
0.440000 0.100000 0
0.460000 0.100000 0
0.480000 0.100000 0
0.500000 0.100000 0
0.520000 0.100000 0
0.540000 0.100000 0
0.560000 0.100000 0
0.580000 0.100000 0
0.600000 0.100000 0
0.620000 0.100000 0
0.640000 0.100000 0
0.660000 0.100000 0
0.680000 0.100000 0
0.700000 0.100000 0
0.720000 0.100000 0
0.740000 0.100000 0
0.760000 0.100000 0
0.780000 0.100000 0
0.800000 0.100000 0
0.820000 0.100000 0
0.840000 0.100000 0
0.860000 0.100000 0
0.880000 0.100000 0
0.900000 0.100000 0
0.920000 0.100000 0
0.940000 0.100000 0
0.960000 0.100000 0
0.980000 0.100000 0
1.000000 0.100000 0
0.000000 0.120000 0
0.020000 0.120000 0
0.040000 0.120000 0
0.060000 0.120000 0
0.080000 0.120000 0
0.100000 0.120000 0
0.120000 0.120000 0
0.140000 0.120000 0
0.160000 0.120000 0
0.180000 0.120000 0
0.200000 0.120000 0
0.220000 0.120000 0
0.240000 0.120000 0
0.260000 0.120000 0
0.280000 0.120000 0
0.300000 0.120000 0
0.320000 0.120000 0
0.340000 0.120000 0
0.360000 0.120000 0
0.380000 0.120000 0
0.400000 0.120000 0
0.420000 0.120000 0
0.440000 0.120000 0
0.460000 0.120000 0
0.480000 0.120000 0
0.500000 0.120000 0
0.520000 0.120000 0
0.540000 0.120000 0
0.560000 0.120000 0
0.580000 0.120000 0
0.600000 0.120000 0
0.620000 0.120000 0
0.640000 0.120000 0
0.660000 0.120000 0
0.680000 0.120000 0
0.700000 0.120000 0
0.720000 0.120000 0
0.740000 0.120000 0
0.760000 0.120000 0
0.780000 0.120000 0
0.800000 0.120000 0
0.820000 0.120000 0
0.840000 0.120000 0
0.860000 0.120000 0
0.880000 0.120000 0
0.900000 0.120000 0
0.920000 0.120000 0
0.940000 0.120000 0
0.960000 0.120000 0
0.980000 0.120000 0
1.000000 0.120000 0
0.000000 0.140000 0
0.020000 0.140000 0
0.040000 0.140000 0
0.060000 0.140000 0
0.080000 0.140000 0
0.100000 0.140000 0
0.120000 0.140000 0
0.140000 0.140000 0
0.160000 0.140000 0
0.180000 0.140000 0
0.200000 0.140000 0
0.220000 0.140000 0
0.240000 0.140000 0
0.260000 0.140000 0
0.280000 0.140000 0
0.300000 0.140000 0
0.320000 0.140000 0
0.340000 0.140000 0
0.360000 0.140000 0
0.380000 0.140000 0
0.400000 0.140000 0
0.420000 0.140000 0
0.440000 0.140000 0
0.460000 0.140000 0
0.480000 0.140000 0
0.500000 0.140000 0
0.520000 0.140000 0
0.540000 0.140000 0
0.560000 0.140000 0
0.580000 0.140000 0
0.600000 0.140000 0
0.620000 0.140000 0
0.640000 0.140000 0
0.660000 0.140000 0
0.680000 0.140000 0
0.700000 0.140000 0
0.720000 0.140000 0
0.740000 0.140000 0
0.760000 0.140000 0
0.780000 0.140000 0
0.800000 0.140000 0
0.820000 0.140000 0
0.840000 0.140000 0
0.860000 0.140000 0
0.880000 0.140000 0
0.900000 0.140000 0
0.920000 0.140000 0
0.940000 0.140000 0
0.960000 0.140000 0
0.980000 0.140000 0
1.000000 0.140000 0
0.000000 0.160000 0
0.020000 0.160000 0
0.040000 0.160000 0
0.060000 0.160000 0
0.080000 0.160000 0
0.100000 0.160000 0
0.120000 0.160000 0
0.140000 0.160000 0
0.160000 0.160000 0
0.180000 0.160000 0
0.200000 0.160000 0
0.220000 0.160000 0
0.240000 0.160000 0
0.260000 0.160000 0
0.280000 0.160000 0
0.300000 0.160000 0
0.320000 0.160000 0
0.340000 0.160000 0
0.360000 0.160000 0
0.380000 0.160000 0
0.400000 0.160000 0
0.420000 0.160000 0
0.440000 0.160000 0
0.460000 0.160000 0
0.480000 0.160000 0
0.500000 0.160000 0
0.520000 0.160000 0
0.540000 0.160000 0
0.560000 0.160000 0
0.580000 0.160000 0
0.600000 0.160000 0
0.620000 0.160000 0
0.640000 0.160000 0
0.660000 0.160000 0
0.680000 0.160000 0
0.700000 0.160000 0
0.720000 0.160000 0
0.740000 0.160000 0
0.760000 0.160000 0
0.780000 0.160000 0
0.800000 0.160000 0
0.820000 0.160000 0
0.840000 0.160000 0
0.860000 0.160000 0
0.880000 0.160000 0
0.900000 0.160000 0
0.920000 0.160000 0
0.940000 0.160000 0
0.960000 0.160000 0
0.980000 0.160000 0
1.000000 0.160000 0
0.000000 0.180000 0
0.020000 0.180000 0
0.040000 0.180000 0
0.060000 0.180000 0
0.080000 0.180000 0
0.100000 0.180000 0
0.120000 0.180000 0
0.140000 0.180000 0
0.160000 0.180000 0
0.180000 0.180000 0
0.200000 0.180000 0
0.220000 0.180000 0
0.240000 0.180000 0
0.260000 0.180000 0
0.280000 0.180000 0
0.300000 0.180000 0
0.320000 0.180000 0
0.340000 0.180000 0
0.360000 0.180000 0
0.380000 0.180000 0
0.400000 0.180000 0
0.420000 0.180000 0
0.440000 0.180000 0
0.460000 0.180000 0
0.480000 0.180000 0
0.500000 0.180000 0
0.520000 0.180000 0
0.540000 0.180000 0
0.560000 0.180000 0
0.580000 0.180000 0
0.600000 0.180000 0
0.620000 0.180000 0
[...]
POINT_DATA 2601 

VECTORS velocity float
0.000000 0.000000 0
-0.000001 0.000000 0
-0.000004 0.000000 0
-0.000007 0.000000 0
-0.000011 0.000000 0
-0.000016 0.000000 0
-0.000021 0.000000 0
-0.000026 0.000000 0
-0.000028 0.000000 0
-0.000029 0.000000 0
-0.000025 0.000000 0
-0.000019 0.000000 0
-0.000010 0.000000 0
-0.000000 0.000000 0
0.000007 0.000000 0
0.000011 0.000000 0
0.000013 0.000000 0
0.000014 0.000000 0
0.000013 0.000000 0
0.000011 0.000000 0
0.000010 0.000000 0
0.000007 0.000000 0
0.000005 0.000000 0
0.000003 0.000000 0
0.000001 0.000000 0
0.000000 0.000000 0
0.000000 0.000000 0
0.000000 0.000000 0
0.000000 0.000000 0
0.000000 0.000000 0
0.000000 0.000000 0
0.000000 0.000000 0
0.000000 0.000000 0
0.000000 0.000000 0
0.000000 0.000000 0
0.000000 0.000000 0
0.000001 0.000000 0
0.000001 0.000000 0
0.000001 0.000000 0
0.000001 0.000000 0
0.000001 0.000000 0
0.000001 0.000000 0
0.000001 0.000000 0
0.000001 0.000000 0
0.000001 0.000000 0
0.000001 0.000000 0
0.000001 0.000000 0
0.000000 0.000000 0
0.000000 0.000000 0
0.000000 0.000000 0
0.000000 0.000000 0
0.000000 0.000001 0
-0.009220 0.007796 0
-0.022237 0.007394 0
-0.030321 0.002941 0
-0.032763 -0.001495 0
-0.030209 -0.005857 0
-0.022656 -0.010568 0
-0.009961 -0.015080 0
0.007721 -0.018475 0
0.029737 -0.020399 0
0.054597 -0.020341 0
0.080299 -0.017936 0
0.104617 -0.013617 0
0.125155 -0.008178 0
0.139793 -0.002774 0
0.147303 0.001631 0
0.147585 0.004911 0
0.141887 0.007432 0
0.131709 0.009467 0
0.118141 0.011157 0
0.102080 0.012502 0
0.084404 0.013371 0
0.066065 0.013567 0
0.048097 0.012926 0
0.031533 0.011406 0
0.017288 0.009134 0
0.006066 0.006364 0
-0.001708 0.003560 0
-0.005973 0.001452 0
-0.007830 0.000319 0
-0.008412 -0.000154 0
-0.008431 -0.000282 0
-0.008252 -0.000269 0
-0.008032 -0.000218 0
-0.007818 -0.000174 0
-0.007609 -0.000153 0
-0.007385 -0.000156 0
-0.007119 -0.000180 0
-0.006790 -0.000219 0
-0.006380 -0.000267 0
-0.005881 -0.000320 0
-0.005293 -0.000372 0
-0.004625 -0.000416 0
-0.003894 -0.000449 0
-0.003124 -0.000464 0
-0.002349 -0.000457 0
-0.001608 -0.000422 0
-0.000949 -0.000351 0
-0.000427 -0.000239 0
-0.000097 -0.000093 0
0.000000 0.000000 0
0.000000 0.000003 0
-0.013341 0.022236 0
-0.031361 0.021100 0
-0.043895 0.010526 0
-0.049936 -0.000113 0
-0.050287 -0.010108 0
-0.045592 -0.020249 0
-0.036045 -0.030378 0
-0.021445 -0.039699 0
-0.001575 -0.046877 0
0.023314 -0.050564 0
0.052719 -0.050021 0
0.084826 -0.044856 0
0.117283 -0.035177 0
0.146596 -0.022149 0
0.169122 -0.007793 0
0.181773 0.005416 0
0.183252 0.015877 0
0.175381 0.023746 0
0.160480 0.029628 0
0.140672 0.033737 0
0.117933 0.036015 0
0.094068 0.036306 0
0.070637 0.034532 0
0.048906 0.030810 0
0.029836 0.025467 0
0.014117 0.018996 0
0.002190 0.012040 0
-0.005690 0.006122 0
-0.009872 0.002439 0
-0.011836 0.000601 0
-0.012629 -0.000159 0
-0.012859 -0.000399 0
-0.012832 -0.000435 0
-0.012681 -0.000423 0
-0.012449 -0.000433 0
-0.012133 -0.000489 0
-0.011712 -0.000595 0
-0.011164 -0.000739 0
-0.010473 -0.000908 0
-0.009634 -0.001086 0
-0.008654 -0.001256 0
-0.007551 -0.001399 0
-0.006358 -0.001501 0
-0.005117 -0.001545 0
-0.003879 -0.001516 0
-0.002704 -0.001399 0
-0.001659 -0.001181 0
-0.000811 -0.000853 0
-0.000233 -0.000426 0
0.000000 0.000000 0
0.000000 0.000005 0
-0.014158 0.039156 0
-0.034141 0.037947 0
-0.049269 0.021516 0
-0.058237 0.004896 0
-0.061942 -0.010202 0
-0.061252 -0.024811 0
-0.056595 -0.039227 0
-0.048048 -0.052945 0
-0.035459 -0.065158 0
-0.018243 -0.074635 0
0.004134 -0.079449 0
0.031749 -0.078181 0
0.063668 -0.069948 0
0.097460 -0.054613 0
0.129806 -0.033546 0
0.155935 -0.009219 0
0.171530 0.013824 0
0.173592 0.032238 0
0.164922 0.045865 0
0.148506 0.055049 0
0.127338 0.059976 0
0.104047 0.060863 0
0.080679 0.058087 0
0.058683 0.052207 0
0.039007 0.043923 0
0.022235 0.034010 0
0.008688 0.023367 0
-0.001544 0.013514 0
-0.008039 0.006465 0
-0.011583 0.002604 0
-0.013404 0.000741 0
-0.014281 -0.000066 0
-0.014643 -0.000396 0
-0.014703 -0.000557 0
-0.014557 -0.000701 0
-0.014233 -0.000893 0
-0.013730 -0.001148 0
-0.013042 -0.001457 0
-0.012168 -0.001797 0
-0.011117 -0.002140 0
-0.009911 -0.002455 0
-0.008584 -0.002712 0
-0.007179 -0.002883 0
-0.005750 -0.002943 0
-0.004353 -0.002869 0
-0.003046 -0.002642 0
-0.001891 -0.002245 0
-0.000949 -0.001665 0
-0.000287 -0.000904 0
0.000000 0.000000 0
0.000000 0.000007 0
-0.013168 0.056376 0
-0.033449 0.056211 0
-0.050065 0.034622 0
-0.060990 0.012560 0
-0.067196 -0.007094 0
-0.069474 -0.025596 0
-0.068461 -0.043582 0
-0.064294 -0.060836 0
-0.056956 -0.076683 0
-0.046298 -0.090157 0
-0.031905 -0.100013 0
-0.012854 -0.104391 0
0.011196 -0.100888 0
0.040384 -0.088287 0
0.072644 -0.066268 0
0.104235 -0.036309 0
0.130681 -0.001782 0
0.144772 0.030354 0
0.145688 0.054714 0
0.136708 0.071320 0
0.121386 0.080475 0
0.102734 0.082965 0
0.083004 0.079896 0
0.063730 0.072483 0
0.045887 0.061915 0
0.030043 0.049315 0
0.016486 0.035818 0
0.005330 0.022850 0
-0.003083 0.012478 0
-0.008377 0.005966 0
-0.011366 0.002538 0
-0.012995 0.000840 0
-0.013825 -0.000012 0
-0.014153 -0.000509 0
-0.014131 -0.000903 0
-0.013832 -0.001316 0
-0.013288 -0.001785 0
-0.012518 -0.002301 0
-0.011546 -0.002834 0
-0.010403 -0.003344 0
-0.009131 -0.003789 0
-0.007781 -0.004131 0
-0.006403 -0.004334 0
-0.005050 -0.004372 0
-0.003770 -0.004220 0
-0.002609 -0.003861 0
-0.001607 -0.003278 0
-0.000803 -0.002456 0
-0.000242 -0.001375 0
0.000000 0.000001 0
0.000000 0.000008 0
-0.011177 0.072604 0
-0.030644 0.074845 0
-0.048072 0.049057 0
-0.060336 0.022026 0
-0.068268 -0.001718 0
-0.072765 -0.023546 0
-0.074600 -0.044408 0
-0.074032 -0.064450 0
-0.071104 -0.083154 0
-0.065699 -0.099686 0
-0.057547 -0.112893 0
-0.046269 -0.121283 0
-0.031083 -0.123186 0
-0.010883 -0.116061 0
0.014315 -0.097398 0
0.044107 -0.067257 0
0.074567 -0.026713 0
0.099276 0.017231 0
0.109813 0.053929 0
0.109884 0.079351 0
0.103182 0.093949 0
0.092216 0.099245 0
0.078910 0.097091 0
0.064682 0.089324 0
0.050534 0.077610 0
0.037117 0.063410 0
0.024816 0.048080 0
0.013868 0.033083 0
0.004584 0.020172 0
-0.002312 0.010887 0
-0.006717 0.005360 0
-0.009246 0.002392 0
-0.010634 0.000763 0
-0.011290 -0.000251 0
-0.011426 -0.001023 0
-0.011185 -0.001736 0
-0.010646 -0.002462 0
-0.009865 -0.003199 0
-0.008897 -0.003913 0
-0.007801 -0.004554 0
-0.006637 -0.005077 0
-0.005464 -0.005440 0
-0.004334 -0.005614 0
-0.003289 -0.005575 0
-0.002358 -0.005310 0
-0.001565 -0.004805 0
-0.000923 -0.004050 0
-0.000440 -0.003029 0
-0.000125 -0.001707 0
0.000000 0.000001 0
0.000000 0.000009 0
-0.008687 0.087020 0
-0.026492 0.093106 0
-0.044227 0.064313 0
-0.057454 0.032755 0
-0.066624 0.005335 0
-0.072865 -0.019264 0
-0.076962 -0.042315 0
-0.079402 -0.064333 0
-0.080330 -0.085016 0
-0.079716 -0.103714 0
-0.077328 -0.119444 0
-0.072736 -0.130855 0
-0.065308 -0.136275 0
-0.054407 -0.133686 0
-0.038695 -0.121259 0
-0.017043 -0.096562 0
0.009603 -0.056951 0
0.039380 -0.004891 0
0.062791 0.044106 0
0.072162 0.077950 0
0.075465 0.098142 0
0.073981 0.107237 0
0.068969 0.107430 0
0.061508 0.100858 0
0.052550 0.089479 0
0.042839 0.075032 0
0.032914 0.059069 0
0.023178 0.043083 0
0.014106 0.028658 0
0.006395 0.017266 0
0.000698 0.009471 0
-0.002977 0.004757 0
-0.005137 0.002032 0
-0.006257 0.000284 0
-0.006662 -0.001007 0
-0.006570 -0.002096 0
-0.006135 -0.003105 0
-0.005466 -0.004049 0
-0.004652 -0.004898 0
-0.003775 -0.005604 0
-0.002909 -0.006126 0
-0.002111 -0.006433 0
-0.001421 -0.006510 0
-0.000865 -0.006347 0
-0.000451 -0.005943 0
-0.000174 -0.005296 0
-0.000020 -0.004403 0
0.000035 -0.003254 0
0.000025 -0.001815 0
0.000000 0.000001 0
0.000000 0.000009 0
-0.006057 0.099096 0
-0.021504 0.110385 0
-0.039085 0.080018 0
-0.053077 0.044424 0
-0.063224 0.013693 0
-0.070866 -0.013209 0
-0.076748 -0.037872 0
-0.081646 -0.061083 0
-0.085827 -0.082840 0
-0.089386 -0.102689 0
-0.092214 -0.119874 0
-0.093955 -0.133303 0
-0.093957 -0.141515 0
-0.091297 -0.142675 0
-0.084743 -0.134763 0
-0.073284 -0.115555 0
-0.055243 -0.083136 0
-0.028871 -0.035957 0
0.003503 0.021147 0
0.026868 0.066676 0
0.041672 0.092130 0
0.050027 0.105741 0
0.053969 0.109564 0
0.054197 0.105743 0
0.051471 0.096279 0
0.046517 0.083047 0
0.039993 0.067740 0
0.032449 0.051891 0
0.024513 0.036955 0
0.016963 0.024295 0
0.010613 0.014732 0
0.005879 0.008227 0
0.002774 0.004043 0
0.000954 0.001274 0
0.000044 -0.000710 0
-0.000218 -0.002263 0
-0.000085 -0.003565 0
0.000271 -0.004683 0
0.000722 -0.005603 0
0.001170 -0.006297 0
0.001542 -0.006741 0
0.001789 -0.006927 0
0.001887 -0.006859 0
0.001833 -0.006546 0
0.001639 -0.006002 0
0.001329 -0.005236 0
0.000941 -0.004259 0
0.000530 -0.003074 0
0.000177 -0.001672 0
0.000000 0.000002 0
0.000000 0.000009 0
-0.003574 0.108523 0
-0.016088 0.126133 0
-0.033024 0.095886 0
-0.047682 0.056895 0
-0.058706 0.023124 0
-0.067460 -0.005741 0
-0.074831 -0.031536 0
-0.081755 -0.055254 0
-0.088638 -0.077276 0
-0.095684 -0.097328 0
-0.102919 -0.114875 0
-0.110135 -0.129113 0
-0.116808 -0.138935 0
-0.122014 -0.142900 0
-0.124351 -0.139272 0
-0.122042 -0.126062 0
-0.112817 -0.101363 0
-0.094409 -0.063638 0
-0.064275 -0.011633 0
-0.025778 0.039782 0
0.002079 0.074983 0
0.022062 0.094939 0
0.035087 0.103260 0
0.043092 0.103357 0
0.047052 0.097160 0
0.047565 0.086510 0
0.045301 0.073135 0
0.040842 0.058562 0
0.034953 0.044144 0
0.028463 0.031167 0
0.022226 0.020556 0
0.016943 0.012595 0
0.012986 0.006957 0
0.010306 0.003014 0
0.008633 0.000165 0
0.007682 -0.001967 0
0.007203 -0.003594 0
0.006960 -0.004857 0
0.006791 -0.005797 0
0.006587 -0.006423 0
0.006280 -0.006744 0
0.005835 -0.006778 0
0.005244 -0.006554 0
0.004518 -0.006099 0
0.003684 -0.005439 0
0.002778 -0.004599 0
0.001854 -0.003604 0
0.000991 -0.002490 0
0.000312 -0.001285 0
0.000000 0.000002 0
0.000000 0.000009 0
-0.001459 0.115184 0
-0.010614 0.139835 0
-0.026323 0.111612 0
-0.041516 0.070105 0
-0.053374 0.033471 0
-0.063068 0.002916 0
-0.071838 -0.023578 0
-0.080481 -0.047276 0
-0.089625 -0.068911 0
-0.099539 -0.088408 0
-0.110331 -0.105424 0
-0.121906 -0.119414 0
-0.133890 -0.129636 0
-0.145517 -0.135132 0
-0.155487 -0.134736 0
-0.161867 -0.127088 0
-0.161971 -0.110769 0
-0.152577 -0.084499 0
-0.130119 -0.047484 0
-0.090890 0.000321 0
-0.047267 0.044290 0
-0.012501 0.072733 0
0.012112 0.088535 0
0.028685 0.093778 0
0.039384 0.091805 0
0.045656 0.084797 0
0.048243 0.074464 0
0.047573 0.062240 0
0.044545 0.049335 0
0.039970 0.037021 0
0.034648 0.026251 0
0.029418 0.017466 0
0.024932 0.010681 0
0.021433 0.005628 0
0.018834 0.001914 0
0.016893 -0.000833 0
0.015429 -0.002844 0
0.014255 -0.004271 0
0.013189 -0.005230 0
0.012118 -0.005787 0
0.010977 -0.005990 0
0.009740 -0.005891 0
0.008406 -0.005541 0
0.006996 -0.004986 0
0.005538 -0.004262 0
0.004071 -0.003406 0
0.002655 -0.002471 0
0.001386 -0.001532 0
0.000422 -0.000681 0
0.000000 0.000002 0
0.000000 0.000009 0
0.000142 0.119137 0
-0.005422 0.150997 0
-0.019230 0.126788 0
-0.034719 0.083946 0
-0.047426 0.044676 0
-0.058038 0.012722 0
-0.068166 -0.014123 0
-0.078321 -0.037467 0
-0.089389 -0.058218 0
-0.101671 -0.076622 0
-0.115271 -0.092508 0
-0.130121 -0.105554 0
-0.145914 -0.115324 0
-0.162025 -0.121303 0
-0.177381 -0.122922 0
-0.190327 -0.119578 0
-0.198501 -0.110653 0
-0.198847 -0.095491 0
-0.187781 -0.073320 0
-0.161721 -0.043070 0
-0.117744 -0.003405 0
-0.068231 0.035560 0
-0.024123 0.062074 0
0.007334 0.076085 0
0.028010 0.080189 0
0.040691 0.077651 0
0.048538 0.071218 0
0.052037 0.062260 0
0.052503 0.051748 0
0.050559 0.041063 0
0.046829 0.031108 0
0.042243 0.022312 0
0.037680 0.014941 0
0.033571 0.009112 0
0.030008 0.004705 0
0.026920 0.001438 0
0.024205 -0.000956 0
0.021784 -0.002616 0
0.019566 -0.003660 0
0.017445 -0.004212 0
0.015353 -0.004366 0
0.013265 -0.004207 0
0.011182 -0.003810 0
0.009118 -0.003230 0
0.007093 -0.002515 0
0.005140 -0.001716 0
0.003310 -0.000919 0
0.001706 -0.000256 0
0.000511 0.000101 0
0.000000 0.000002 0
0.000000 0.000009 0
0.001312 0.120606 0
-0.000859 0.159207 0
-0.012041 0.140909 0
-0.027442 0.098302 0
-0.041030 0.056790 0
-0.052542 0.023655 0
-0.063802 -0.003295 0
-0.075494 -0.026053 0
-0.088259 -0.045562 0
-0.102515 -0.062526 0
-0.118311 -0.076974 0
-0.135525 -0.088771 0
-0.153825 -0.097731 0
-0.172637 -0.103666 0
-0.191082 -0.106434 0
-0.207921 -0.105968 0
-0.221508 -0.102249 0
-0.229777 -0.095220 0
-0.230245 -0.084611 0
-0.220025 -0.069715 0
-0.195760 -0.049200 0
-0.153775 -0.020887 0
-0.101753 0.012970 0
-0.048953 0.041644 0
-0.004837 0.058447 0
0.025485 0.064269 0
0.043473 0.063118 0
0.052704 0.058275 0
0.057682 0.050812 0
0.059038 0.042696 0
0.057342 0.034568 0
0.053861 0.026615 0
0.049722 0.019352 0
0.045327 0.013300 0
0.040892 0.008565 0
0.036617 0.004970 0
0.032613 0.002292 0
0.028889 0.000368 0
0.025419 -0.000891 0
0.022152 -0.001573 0
0.019060 -0.001809 0
0.016132 -0.001720 0
0.013355 -0.001395 0
0.010721 -0.000897 0
0.008234 -0.000283 0
0.005910 0.000378 0
0.003785 0.000963 0
0.001950 0.001267 0
0.000587 0.001025 0
0.000000 0.000002 0
0.000000 0.000009 0
0.002217 0.119996 0
0.002802 0.164350 0
-0.005111 0.153370 0
-0.019859 0.112936 0
-0.034261 0.069776 0
-0.046596 0.035494 0
-0.058741 0.008829 0
-0.072026 -0.013011 0
-0.086351 -0.031198 0
-0.102254 -0.046569 0
-0.119734 -0.059498 0
-0.138587 -0.070040 0
-0.158415 -0.078212 0
-0.178645 -0.084046 0
-0.198519 -0.087638 0
-0.217125 -0.089152 0
-0.233420 -0.088797 0
-0.246265 -0.086754 0
-0.254402 -0.083073 0
-0.256353 -0.077555 0
-0.250202 -0.069655 0
-0.233308 -0.058446 0
-0.201875 -0.042749 0
-0.155962 -0.020831 0
-0.103125 0.005751 0
-0.050624 0.029342 0
-0.006119 0.043999 0
0.027205 0.048050 0
0.047356 0.045413 0
0.057363 0.041404 0
0.060387 0.036286 0
0.059682 0.029932 0
0.057283 0.023475 0
0.053427 0.017942 0
0.048616 0.013415 0
0.043508 0.009717 0
0.038554 0.006772 0
0.033859 0.004578 0
0.029407 0.003077 0
0.025218 0.002146 0
0.021334 0.001653 0
0.017769 0.001498 0
0.014499 0.001602 0
0.011496 0.001890 0
0.008747 0.002296 0
0.006248 0.002733 0
0.004012 0.003041 0
0.002096 0.002942 0
0.000651 0.002052 0
0.000000 0.000001 0
0.000000 0.000009 0
0.002884 0.117804 0
0.005502 0.166535 0
0.001137 0.163570 0
-0.012200 0.127451 0
-0.027225 0.083527 0
-0.040358 0.048135 0
-0.053177 0.022136 0
-0.067516 0.001557 0
-0.083523 -0.015335 0
-0.100846 -0.029143 0
-0.119588 -0.040640 0
-0.139512 -0.050090 0
-0.160169 -0.057674 0
-0.181015 -0.063561 0
-0.201396 -0.067954 0
-0.220624 -0.071067 0
-0.238018 -0.073109 0
-0.252943 -0.074238 0
-0.264809 -0.074522 0
-0.273027 -0.073914 0
-0.276883 -0.072245 0
-0.275379 -0.069214 0
-0.267051 -0.064375 0
-0.249918 -0.057106 0
-0.221001 -0.046891 0
-0.180103 -0.032736 0
-0.132242 -0.014711 0
-0.083293 0.004799 0
-0.040076 0.020655 0
-0.004839 0.029665 0
0.021264 0.032249 0
0.037443 0.029719 0
0.044811 0.025607 0
0.046469 0.021967 0
0.044685 0.018484 0
0.041260 0.015033 0
0.037250 0.011942 0
0.032975 0.009515 0
0.028636 0.007750 0
0.024427 0.006499 0
0.020508 0.005639 0
0.016944 0.005116 0
0.013716 0.004879 0
0.010801 0.004854 0
0.008186 0.004965 0
0.005859 0.005113 0
0.003809 0.005116 0
0.002050 0.004627 0
0.000678 0.003120 0
0.000000 0.000001 0
0.000000 0.000009 0
0.003329 0.114494 0
0.007378 0.166098 0
0.006165 0.171073 0
-0.004705 0.141297 0
-0.020076 0.097934 0
-0.034070 0.061446 0
-0.047446 0.035986 0
-0.062222 0.017335 0
-0.079227 0.002132 0
-0.097873 -0.010504 0
-0.117708 -0.020832 0
-0.138302 -0.029459 0
-0.159313 -0.036709 0
-0.180301 -0.042819 0
-0.200728 -0.048028 0
-0.220091 -0.052529 0
-0.237942 -0.056478 0
-0.253872 -0.059963 0
-0.267528 -0.062989 0
-0.278590 -0.065481 0
-0.286748 -0.067302 0
-0.291661 -0.068278 0
-0.292912 -0.068209 0
-0.289929 -0.066881 0
-0.281882 -0.064064 0
-0.267874 -0.059417 0
-0.246237 -0.052811 0
-0.216212 -0.044116 0
-0.178598 -0.033041 0
-0.137865 -0.019935 0
-0.097892 -0.005996 0
-0.062443 0.006384 0
-0.034002 0.014449 0
-0.012403 0.018068 0
0.002672 0.018624 0
0.011746 0.017152 0
0.015949 0.015057 0
0.017090 0.013192 0
0.016434 0.011625 0
0.014897 0.010274 0
0.013010 0.009136 0
0.011053 0.008291 0
0.009118 0.007745 0
0.007282 0.007420 0
0.005601 0.007238 0
0.004099 0.007110 0
0.002771 0.006850 0
0.001596 0.006073 0
0.000596 0.004102 0
0.000000 0.000001 0
0.000000 0.000009 0
0.003589 0.110426 0
0.008580 0.163699 0
0.009729 0.175653 0
0.002168 0.153693 0
-0.012964 0.112892 0
-0.027865 0.075505 0
-0.041899 0.050288 0
-0.056993 0.033338 0
-0.074049 0.020316 0
-0.093082 0.009337 0
-0.113394 -0.000211 0
-0.134458 -0.008485 0
-0.155754 -0.015675 0
-0.176723 -0.022146 0
-0.196991 -0.028163 0
-0.216271 -0.033852 0
-0.234312 -0.039328 0
-0.250842 -0.044651 0
-0.265621 -0.049803 0
-0.278393 -0.054695 0
-0.288892 -0.059175 0
-0.296849 -0.063050 0
-0.302010 -0.066107 0
-0.304142 -0.068135 0
-0.303030 -0.068945 0
-0.298472 -0.068381 0
-0.290142 -0.066374 0
-0.277880 -0.062840 0
-0.261346 -0.057692 0
-0.240101 -0.051040 0
-0.214040 -0.043173 0
-0.183750 -0.034171 0
-0.151365 -0.024433 0
-0.119968 -0.014707 0
-0.091471 -0.005665 0
-0.067208 0.001755 0
-0.047741 0.006598 0
-0.032775 0.009031 0
-0.021683 0.009943 0
-0.013838 0.009923 0
-0.008602 0.009483 0
-0.005287 0.009008 0
-0.003171 0.008649 0
-0.001804 0.008371 0
-0.000899 0.008148 0
-0.000286 0.007943 0
0.000117 0.007619 0
0.000310 0.006803 0
0.000250 0.004717 0
0.000000 0.000000 0
0.000000 0.000009 0
0.003696 0.105914 0
0.009229 0.159958 0
0.012038 0.177485 0
0.007674 0.163991 0
-0.006029 0.127967 0
-0.021747 0.090380 0
-0.036555 0.065114 0
-0.051980 0.049485 0
-0.068994 0.038221 0
-0.087566 0.028841 0
-0.107383 0.020544 0
-0.128026 0.012901 0
-0.148946 0.005557 0
-0.169688 -0.001582 0
-0.189927 -0.008480 0
-0.209292 -0.015207 0
-0.227471 -0.021907 0
-0.244347 -0.028654 0
-0.259863 -0.035437 0
-0.273835 -0.042210 0
-0.286038 -0.048846 0
-0.296183 -0.055159 0
-0.303974 -0.060916 0
-0.309123 -0.065860 0
-0.311385 -0.069733 0
-0.310585 -0.072305 0
-0.306631 -0.073402 0
-0.299565 -0.072912 0
-0.289449 -0.070821 0
-0.276376 -0.067241 0
-0.260544 -0.062346 0
-0.242248 -0.056290 0
-0.221573 -0.049333 0
-0.198908 -0.041826 0
-0.174721 -0.034136 0
-0.149732 -0.026578 0
-0.125066 -0.019376 0
-0.102174 -0.012866 0
-0.081783 -0.007312 0
-0.064265 -0.002806 0
-0.049622 0.000586 0
-0.037631 0.002860 0
-0.027919 0.004262 0
-0.020116 0.005147 0
-0.013907 0.005720 0
-0.009019 0.006094 0
-0.005234 0.006254 0
-0.002409 0.005940 0
-0.000593 0.004412 0
0.000000 -0.000001 0
0.000000 0.000009 0
0.003681 0.101198 0
0.009445 0.155357 0
0.013338 0.177208 0
0.011453 0.171760 0
0.000431 0.142313 0
-0.015757 0.106031 0
-0.031324 0.080521 0
-0.047064 0.065778 0
-0.063967 0.055902 0
-0.082069 0.047727 0
-0.101042 0.040249 0
-0.120522 0.033078 0
-0.140258 0.025988 0
-0.160075 0.018835 0
-0.179691 0.011441 0
-0.198791 0.003693 0
-0.217108 -0.004272 0
-0.234418 -0.012259 0
-0.250457 -0.020315 0
-0.265180 -0.028520 0
-0.278549 -0.036826 0
-0.290331 -0.045113 0
-0.300221 -0.053167 0
-0.307880 -0.060724 0
-0.312965 -0.067483 0
-0.315176 -0.073135 0
-0.314285 -0.077393 0
-0.310181 -0.080022 0
-0.302876 -0.080881 0
-0.292538 -0.079945 0
-0.279491 -0.077300 0
-0.264146 -0.073141 0
-0.246901 -0.067774 0
-0.228200 -0.061559 0
-0.208459 -0.054840 0
-0.188106 -0.047899 0
-0.167484 -0.040960 0
-0.146887 -0.034252 0
-0.126690 -0.027965 0
-0.107227 -0.022239 0
-0.088830 -0.017151 0
-0.071831 -0.012695 0
-0.056557 -0.008866 0
-0.043097 -0.005641 0
-0.031440 -0.002948 0
-0.021511 -0.000729 0
-0.013239 0.001008 0
-0.006645 0.002161 0
-0.001991 0.002308 0
0.000000 -0.000003 0
0.000000 0.000009 0
0.003572 0.096468 0
0.009333 0.150301 0
0.013840 0.175478 0
0.013766 0.176897 0
0.005752 0.155177 0
-0.009971 0.122136 0
-0.026118 0.096421 0
-0.042104 0.082128 0
-0.058777 0.073227 0
-0.076289 0.065916 0
-0.094385 0.058997 0
-0.112793 0.052118 0
-0.131311 0.045110 0
-0.149770 0.037851 0
-0.168039 0.030237 0
-0.186075 0.022210 0
-0.203810 0.013719 0
-0.221012 0.004697 0
-0.237371 -0.004674 0
-0.252667 -0.014118 0
-0.266689 -0.023695 0
-0.279486 -0.033487 0
-0.290864 -0.043367 0
-0.300498 -0.053116 0
-0.308002 -0.062437 0
-0.312985 -0.070985 0
-0.315082 -0.078397 0
-0.314004 -0.084322 0