# vtk DataFile Version 2.0
generated by CFD-lab course output (written by Tobias Neckel) 
ASCII

DATASET STRUCTURED_GRID
DIMENSIONS  51 51 1 
POINTS 2601 float

0.000000 0.000000 0
0.020000 0.000000 0
0.040000 0.000000 0
0.060000 0.000000 0
0.080000 0.000000 0
0.100000 0.000000 0
0.120000 0.000000 0
0.140000 0.000000 0
0.160000 0.000000 0
0.180000 0.000000 0
0.200000 0.000000 0
0.220000 0.000000 0
0.240000 0.000000 0
0.260000 0.000000 0
0.280000 0.000000 0
0.300000 0.000000 0
0.320000 0.000000 0
0.340000 0.000000 0
0.360000 0.000000 0
0.380000 0.000000 0
0.400000 0.000000 0
0.420000 0.000000 0
0.440000 0.000000 0
0.460000 0.000000 0
0.480000 0.000000 0
0.500000 0.000000 0
0.520000 0.000000 0
0.540000 0.000000 0
0.560000 0.000000 0
0.580000 0.000000 0
0.600000 0.000000 0
0.620000 0.000000 0
0.640000 0.000000 0
0.660000 0.000000 0
0.680000 0.000000 0
0.700000 0.000000 0
0.720000 0.000000 0
0.740000 0.000000 0
0.760000 0.000000 0
0.780000 0.000000 0
0.800000 0.000000 0
0.820000 0.000000 0
0.840000 0.000000 0
0.860000 0.000000 0
0.880000 0.000000 0
0.900000 0.000000 0
0.920000 0.000000 0
0.940000 0.000000 0
0.960000 0.000000 0
0.980000 0.000000 0
1.000000 0.000000 0
0.000000 0.020000 0
0.020000 0.020000 0
0.040000 0.020000 0
0.060000 0.020000 0
0.080000 0.020000 0
0.100000 0.020000 0
0.120000 0.020000 0
0.140000 0.020000 0
0.160000 0.020000 0
0.180000 0.020000 0
0.200000 0.020000 0
0.220000 0.020000 0
0.240000 0.020000 0
0.260000 0.020000 0
0.280000 0.020000 0
0.300000 0.020000 0
0.320000 0.020000 0
0.340000 0.020000 0
0.360000 0.020000 0
0.380000 0.020000 0
0.400000 0.020000 0
0.420000 0.020000 0
0.440000 0.020000 0
0.460000 0.020000 0
0.480000 0.020000 0
0.500000 0.020000 0
0.520000 0.020000 0
0.540000 0.020000 0
0.560000 0.020000 0
0.580000 0.020000 0
0.600000 0.020000 0
0.620000 0.020000 0
0.640000 0.020000 0
0.660000 0.020000 0
0.680000 0.020000 0
0.700000 0.020000 0
0.720000 0.020000 0
0.740000 0.020000 0
0.760000 0.020000 0
0.780000 0.020000 0
0.800000 0.020000 0
0.820000 0.020000 0
0.840000 0.020000 0
0.860000 0.020000 0
0.880000 0.020000 0
0.900000 0.020000 0
0.920000 0.020000 0
0.940000 0.020000 0
0.960000 0.020000 0
0.980000 0.020000 0
1.000000 0.020000 0
0.000000 0.040000 0
0.020000 0.040000 0
0.040000 0.040000 0
0.060000 0.040000 0
0.080000 0.040000 0
0.100000 0.040000 0
0.120000 0.040000 0
0.140000 0.040000 0
0.160000 0.040000 0
0.180000 0.040000 0
0.200000 0.040000 0
0.220000 0.040000 0
0.240000 0.040000 0
0.260000 0.040000 0
0.280000 0.040000 0
0.300000 0.040000 0
0.320000 0.040000 0
0.340000 0.040000 0
0.360000 0.040000 0
0.380000 0.040000 0
0.400000 0.040000 0
0.420000 0.040000 0
0.440000 0.040000 0
0.460000 0.040000 0
0.480000 0.040000 0
0.500000 0.040000 0
0.520000 0.040000 0
0.540000 0.040000 0
0.560000 0.040000 0
0.580000 0.040000 0
0.600000 0.040000 0
0.620000 0.040000 0
0.640000 0.040000 0
0.660000 0.040000 0
0.680000 0.040000 0
0.700000 0.040000 0
0.720000 0.040000 0
0.740000 0.040000 0
0.760000 0.040000 0
0.780000 0.040000 0
0.800000 0.040000 0
0.820000 0.040000 0
0.840000 0.040000 0
0.860000 0.040000 0
0.880000 0.040000 0
0.900000 0.040000 0
0.920000 0.040000 0
0.940000 0.040000 0
0.960000 0.040000 0
0.980000 0.040000 0
1.000000 0.040000 0
0.000000 0.060000 0
0.020000 0.060000 0
0.040000 0.060000 0
0.060000 0.060000 0
0.080000 0.060000 0
0.100000 0.060000 0
0.120000 0.060000 0
0.140000 0.060000 0
0.160000 0.060000 0
0.180000 0.060000 0
0.200000 0.060000 0
0.220000 0.060000 0
0.240000 0.060000 0
0.260000 0.060000 0
0.280000 0.060000 0
0.300000 0.060000 0
0.320000 0.060000 0
0.340000 0.060000 0
0.360000 0.060000 0
0.380000 0.060000 0
0.400000 0.060000 0
0.420000 0.060000 0
0.440000 0.060000 0
0.460000 0.060000 0
0.480000 0.060000 0
0.500000 0.060000 0
0.520000 0.060000 0
0.540000 0.060000 0
0.560000 0.060000 0
0.580000 0.060000 0
0.600000 0.060000 0
0.620000 0.060000 0
0.640000 0.060000 0
0.660000 0.060000 0
0.680000 0.060000 0
0.700000 0.060000 0
0.720000 0.060000 0
0.740000 0.060000 0
0.760000 0.060000 0
0.780000 0.060000 0
0.800000 0.060000 0
0.820000 0.060000 0
0.840000 0.060000 0
0.860000 0.060000 0
0.880000 0.060000 0
0.900000 0.060000 0
0.920000 0.060000 0
0.940000 0.060000 0
0.960000 0.060000 0
0.980000 0.060000 0
1.000000 0.060000 0
0.000000 0.080000 0
0.020000 0.080000 0
0.040000 0.080000 0
0.060000 0.080000 0
0.080000 0.080000 0
0.100000 0.080000 0
0.120000 0.080000 0
0.140000 0.080000 0
0.160000 0.080000 0
0.180000 0.080000 0
0.200000 0.080000 0
0.220000 0.080000 0
0.240000 0.080000 0
0.260000 0.080000 0
0.280000 0.080000 0
0.300000 0.080000 0
0.320000 0.080000 0
0.340000 0.080000 0
0.360000 0.080000 0
0.380000 0.080000 0
0.400000 0.080000 0
0.420000 0.080000 0
0.440000 0.080000 0
0.460000 0.080000 0
0.480000 0.080000 0
0.500000 0.080000 0
0.520000 0.080000 0
0.540000 0.080000 0
0.560000 0.080000 0
0.580000 0.080000 0
0.600000 0.080000 0
0.620000 0.080000 0
0.640000 0.080000 0
0.660000 0.080000 0
0.680000 0.080000 0
0.700000 0.080000 0
0.720000 0.080000 0
0.740000 0.080000 0
0.760000 0.080000 0
0.780000 0.080000 0
0.800000 0.080000 0
0.820000 0.080000 0
0.840000 0.080000 0
0.860000 0.080000 0
0.880000 0.080000 0
0.900000 0.080000 0
0.920000 0.080000 0
0.940000 0.080000 0
0.960000 0.080000 0
0.980000 0.080000 0
1.000000 0.080000 0
0.000000 0.100000 0
0.020000 0.100000 0
0.040000 0.100000 0
0.060000 0.100000 0
0.080000 0.100000 0
0.100000 0.100000 0
0.120000 0.100000 0
0.140000 0.100000 0
0.160000 0.100000 0
0.180000 0.100000 0
0.200000 0.100000 0
0.220000 0.100000 0
0.240000 0.100000 0
0.260000 0.100000 0
0.280000 0.100000 0
0.300000 0.100000 0
0.320000 0.100000 0
0.340000 0.100000 0
0.360000 0.100000 0
0.380000 0.100000 0
0.400000 0.100000 0
0.420000 0.100000 0
0.440000 0.100000 0
0.460000 0.100000 0
0.480000 0.100000 0
0.500000 0.100000 0
0.520000 0.100000 0
0.540000 0.100000 0
0.560000 0.100000 0
0.580000 0.100000 0
0.600000 0.100000 0
0.620000 0.100000 0
0.640000 0.100000 0
0.660000 0.100000 0
0.680000 0.100000 0
0.700000 0.100000 0
0.720000 0.100000 0
0.740000 0.100000 0
0.760000 0.100000 0
0.780000 0.100000 0
0.800000 0.100000 0
0.820000 0.100000 0
0.840000 0.100000 0
0.860000 0.100000 0
0.880000 0.100000 0
0.900000 0.100000 0
0.920000 0.100000 0
0.940000 0.100000 0
0.960000 0.100000 0
0.980000 0.100000 0
1.000000 0.100000 0
0.000000 0.120000 0
0.020000 0.120000 0
0.040000 0.120000 0
0.060000 0.120000 0
0.080000 0.120000 0
0.100000 0.120000 0
0.120000 0.120000 0
0.140000 0.120000 0
0.160000 0.120000 0
0.180000 0.120000 0
0.200000 0.120000 0
0.220000 0.120000 0
0.240000 0.120000 0
0.260000 0.120000 0
0.280000 0.120000 0
0.300000 0.120000 0
0.320000 0.120000 0
0.340000 0.120000 0
0.360000 0.120000 0
0.380000 0.120000 0
0.400000 0.120000 0
0.420000 0.120000 0
0.440000 0.120000 0
0.460000 0.120000 0
0.480000 0.120000 0
0.500000 0.120000 0
0.520000 0.120000 0
0.540000 0.120000 0
0.560000 0.120000 0
0.580000 0.120000 0
0.600000 0.120000 0
0.620000 0.120000 0
0.640000 0.120000 0
0.660000 0.120000 0
0.680000 0.120000 0
0.700000 0.120000 0
0.720000 0.120000 0
0.740000 0.120000 0
0.760000 0.120000 0
0.780000 0.120000 0
0.800000 0.120000 0
0.820000 0.120000 0
0.840000 0.120000 0
0.860000 0.120000 0
0.880000 0.120000 0
0.900000 0.120000 0
0.920000 0.120000 0
0.940000 0.120000 0
0.960000 0.120000 0
0.980000 0.120000 0
1.000000 0.120000 0
0.000000 0.140000 0
0.020000 0.140000 0
0.040000 0.140000 0
0.060000 0.140000 0
0.080000 0.140000 0
0.100000 0.140000 0
0.120000 0.140000 0
0.140000 0.140000 0
0.160000 0.140000 0
0.180000 0.140000 0
0.200000 0.140000 0
0.220000 0.140000 0
0.240000 0.140000 0
0.260000 0.140000 0
0.280000 0.140000 0
0.300000 0.140000 0
0.320000 0.140000 0
0.340000 0.140000 0
0.360000 0.140000 0
0.380000 0.140000 0
0.400000 0.140000 0
0.420000 0.140000 0
0.440000 0.140000 0
0.460000 0.140000 0
0.480000 0.140000 0
0.500000 0.140000 0
0.520000 0.140000 0
0.540000 0.140000 0
0.560000 0.140000 0
0.580000 0.140000 0
0.600000 0.140000 0
0.620000 0.140000 0
0.640000 0.140000 0
0.660000 0.140000 0
0.680000 0.140000 0
0.700000 0.140000 0
0.720000 0.140000 0
0.740000 0.140000 0
0.760000 0.140000 0
0.780000 0.140000 0
0.800000 0.140000 0
0.820000 0.140000 0
0.840000 0.140000 0
0.860000 0.140000 0
0.880000 0.140000 0
0.900000 0.140000 0
0.920000 0.140000 0
0.940000 0.140000 0
0.960000 0.140000 0
0.980000 0.140000 0
1.000000 0.140000 0
0.000000 0.160000 0
0.020000 0.160000 0
0.040000 0.160000 0
0.060000 0.160000 0
0.080000 0.160000 0
0.100000 0.160000 0
0.120000 0.160000 0
0.140000 0.160000 0
0.160000 0.160000 0
0.180000 0.160000 0
0.200000 0.160000 0
0.220000 0.160000 0
0.240000 0.160000 0
0.260000 0.160000 0
0.280000 0.160000 0
0.300000 0.160000 0
0.320000 0.160000 0
0.340000 0.160000 0
0.360000 0.160000 0
0.380000 0.160000 0
0.400000 0.160000 0
0.420000 0.160000 0
0.440000 0.160000 0
0.460000 0.160000 0
0.480000 0.160000 0
0.500000 0.160000 0
0.520000 0.160000 0
0.540000 0.160000 0
0.560000 0.160000 0
0.580000 0.160000 0
0.600000 0.160000 0
0.620000 0.160000 0
0.640000 0.160000 0
0.660000 0.160000 0
0.680000 0.160000 0
0.700000 0.160000 0
0.720000 0.160000 0
0.740000 0.160000 0
0.760000 0.160000 0
0.780000 0.160000 0
0.800000 0.160000 0
0.820000 0.160000 0
0.840000 0.160000 0
0.860000 0.160000 0
0.880000 0.160000 0
0.900000 0.160000 0
0.920000 0.160000 0
0.940000 0.160000 0
0.960000 0.160000 0
0.980000 0.160000 0
1.000000 0.160000 0
0.000000 0.180000 0
0.020000 0.180000 0
0.040000 0.180000 0
0.060000 0.180000 0
0.080000 0.180000 0
0.100000 0.180000 0
0.120000 0.180000 0
0.140000 0.180000 0
0.160000 0.180000 0
0.180000 0.180000 0
0.200000 0.180000 0
0.220000 0.180000 0
0.240000 0.180000 0
0.260000 0.180000 0
0.280000 0.180000 0
0.300000 0.180000 0
0.320000 0.180000 0
0.340000 0.180000 0
0.360000 0.180000 0
0.380000 0.180000 0
0.400000 0.180000 0
0.420000 0.180000 0
0.440000 0.180000 0
0.460000 0.180000 0
0.480000 0.180000 0
0.500000 0.180000 0
0.520000 0.180000 0
0.540000 0.180000 0
0.560000 0.180000 0
0.580000 0.180000 0
0.600000 0.180000 0
0.620000 0.180000 0
[...]
POINT_DATA 2601 

VECTORS velocity float
0.000000 0.000000 0
0.000001 0.000000 0
0.000001 0.000000 0
0.000000 0.000000 0
-0.000000 0.000000 0
-0.000002 0.000000 0
-0.000003 0.000000 0
-0.000006 0.000000 0
-0.000009 0.000000 0
-0.000013 0.000000 0
-0.000019 0.000000 0
-0.000026 0.000000 0
-0.000030 0.000000 0
-0.000032 0.000000 0
-0.000032 0.000000 0
-0.000026 0.000000 0
-0.000017 0.000000 0
-0.000007 0.000000 0
0.000003 0.000000 0
0.000010 0.000000 0
0.000013 0.000000 0
0.000015 0.000000 0
0.000016 0.000000 0
0.000015 0.000000 0
0.000013 0.000000 0
0.000010 0.000000 0
0.000008 0.000000 0
0.000005 0.000000 0
0.000003 0.000000 0
0.000002 0.000000 0
0.000001 0.000000 0
0.000001 0.000000 0
0.000001 0.000000 0
0.000001 0.000000 0
0.000001 0.000000 0
0.000001 0.000000 0
0.000001 0.000000 0
0.000001 0.000000 0
0.000001 0.000000 0
0.000001 0.000000 0
0.000001 0.000000 0
0.000001 0.000000 0
0.000001 0.000000 0
0.000001 0.000000 0
0.000001 0.000000 0
0.000000 0.000000 0
0.000000 0.000000 0
0.000000 0.000000 0
0.000000 0.000000 0
-0.000000 0.000000 0
0.000000 0.000000 0
0.000000 -0.000001 0
-0.009282 0.008780 0
-0.025621 0.010938 0
-0.039645 0.008400 0
-0.050109 0.005627 0
-0.057407 0.003234 0
-0.061554 0.000854 0
-0.062337 -0.001914 0
-0.059382 -0.005402 0
-0.052156 -0.009688 0
-0.040214 -0.014657 0
-0.023308 -0.019673 0
-0.001505 -0.023478 0
0.024747 -0.025321 0
0.054039 -0.024754 0
0.084009 -0.021007 0
0.111671 -0.014213 0
0.133545 -0.005725 0
0.146062 0.002307 0
0.147283 0.008426 0
0.138464 0.012761 0
0.122759 0.015745 0
0.102733 0.017470 0
0.080752 0.017790 0
0.059011 0.016592 0
0.039383 0.014018 0
0.023217 0.010561 0
0.011166 0.006962 0
0.003150 0.003909 0
-0.001527 0.001803 0
-0.003846 0.000628 0
-0.004784 0.000056 0
-0.004967 -0.000215 0
-0.004721 -0.000359 0
-0.004208 -0.000458 0
-0.003505 -0.000534 0
-0.002673 -0.000585 0
-0.001779 -0.000599 0
-0.000896 -0.000570 0
-0.000095 -0.000500 0
0.000565 -0.000396 0
0.001043 -0.000272 0
0.001325 -0.000143 0
0.001415 -0.000023 0
0.001338 0.000078 0
0.001131 0.000150 0
0.000840 0.000187 0
0.000524 0.000183 0
0.000243 0.000137 0
0.000056 0.000058 0
0.000000 0.000000 0
0.000000 -0.000001 0
-0.014357 0.025621 0
-0.036834 0.030363 0
-0.056561 0.024488 0
-0.072030 0.017762 0
-0.083456 0.011445 0
-0.090764 0.004930 0
-0.093787 -0.002173 0
-0.092543 -0.010182 0
-0.087084 -0.019169 0
-0.077504 -0.028849 0
-0.063976 -0.038710 0
-0.046375 -0.048056 0
-0.024174 -0.055546 0
0.002676 -0.059264 0
0.034103 -0.057634 0
0.069407 -0.049538 0
0.105301 -0.034392 0
0.136800 -0.013739 0
0.157553 0.007597 0
0.161288 0.024524 0
0.150819 0.035731 0
0.131264 0.042007 0
0.107202 0.043722 0
0.082231 0.041369 0
0.058907 0.035794 0
0.038810 0.028216 0
0.022746 0.020067 0
0.010920 0.012693 0
0.002999 0.006996 0
-0.001725 0.003257 0
-0.004171 0.001121 0
-0.005143 -0.000063 0
-0.005205 -0.000759 0
-0.004689 -0.001216 0
-0.003792 -0.001535 0
-0.002661 -0.001727 0
-0.001430 -0.001777 0
-0.000228 -0.001684 0
0.000837 -0.001461 0
0.001681 -0.001138 0
0.002258 -0.000760 0
0.002552 -0.000372 0
0.002577 -0.000013 0
0.002369 0.000285 0
0.001982 0.000498 0
0.001482 0.000607 0
0.000950 0.000598 0
0.000473 0.000469 0
0.000132 0.000243 0
0.000000 0.000000 0
0.000000 -0.000002 0
-0.015895 0.045614 0
-0.040583 0.053142 0
-0.062497 0.043596 0
-0.079793 0.032522 0
-0.092802 0.021968 0
-0.101671 0.011184 0
-0.106500 -0.000136 0
-0.107522 -0.012105 0
-0.105206 -0.024727 0
-0.099867 -0.037766 0
-0.091756 -0.050802 0
-0.080989 -0.063282 0
-0.067556 -0.074373 0
-0.050858 -0.083032 0
-0.029832 -0.087739 0
-0.003542 -0.085411 0
0.028342 -0.073119 0
0.065213 -0.049946 0
0.101777 -0.016061 0
0.127785 0.019494 0
0.133166 0.045769 0
0.124099 0.061087 0
0.107349 0.066823 0
0.087447 0.064887 0
0.067420 0.057439 0
0.049044 0.046722 0
0.033277 0.034852 0
0.020603 0.023655 0
0.011142 0.014449 0
0.004663 0.007798 0
0.000720 0.003475 0
-0.001311 0.000819 0
-0.002020 -0.000813 0
-0.001841 -0.001871 0
-0.001126 -0.002563 0
-0.000118 -0.002947 0
0.000986 -0.003032 0
0.002034 -0.002837 0
0.002907 -0.002408 0
0.003532 -0.001817 0
0.003876 -0.001143 0
0.003934 -0.000463 0
0.003729 0.000160 0
0.003299 0.000673 0
0.002703 0.001037 0
0.002008 0.001218 0
0.001296 0.001193 0
0.000658 0.000955 0
0.000193 0.000531 0
0.000000 0.000000 0
0.000000 -0.000002 0
-0.015365 0.066203 0
-0.040218 0.076964 0
-0.062773 0.063698 0
-0.080529 0.048067 0
-0.093979 0.033323 0
-0.103602 0.018627 0
-0.109763 0.003678 0
-0.112841 -0.011477 0
-0.113350 -0.026825 0
-0.111669 -0.042299 0
-0.108031 -0.057588 0
-0.102578 -0.072258 0
-0.095339 -0.085678 0
-0.086122 -0.096989 0
-0.074605 -0.104950 0
-0.060084 -0.107712 0
-0.040594 -0.103148 0
-0.014402 -0.087174 0
0.018620 -0.054975 0
0.056987 -0.006866 0
0.087174 0.039416 0
0.093217 0.067824 0
0.089382 0.080373 0
0.079841 0.081298 0
0.067669 0.074197 0
0.054700 0.062359 0
0.042128 0.048507 0
0.030827 0.034828 0
0.021381 0.022937 0
0.014105 0.013679 0
0.009044 0.007095 0
0.005932 0.002677 0
0.004346 -0.000229 0
0.003851 -0.002111 0
0.004012 -0.003258 0
0.004496 -0.003838 0
0.005065 -0.003929 0
0.005559 -0.003604 0
0.005880 -0.002959 0
0.005978 -0.002107 0
0.005838 -0.001161 0
0.005473 -0.000224 0
0.004908 0.000621 0
0.004183 0.001310 0
0.003347 0.001790 0
0.002457 0.002014 0
0.001581 0.001948 0
0.000806 0.001572 0
0.000238 0.000901 0
0.000000 0.000000 0
0.000000 -0.000002 0
-0.013575 0.085831 0
-0.037277 0.100550 0
-0.059706 0.083907 0
-0.077434 0.063728 0
-0.090999 0.045041 0
-0.101199 0.026967 0
-0.108580 0.009103 0
-0.113588 -0.008518 0
-0.116598 -0.025899 0
-0.118071 -0.043085 0
-0.118238 -0.059894 0
-0.117274 -0.075974 0
-0.115281 -0.090830 0
-0.112230 -0.103766 0
-0.107937 -0.113777 0
-0.101913 -0.119422 0
-0.093176 -0.118801 0
-0.080524 -0.109161 0
-0.060830 -0.087451 0
-0.030473 -0.049059 0
0.010276 0.009539 0
0.043779 0.058879 0
0.057899 0.080199 0
0.061688 0.086600 0
0.060248 0.082580 0
0.055295 0.072264 0
0.048194 0.058724 0
0.040226 0.044402 0
0.032375 0.031171 0
0.025411 0.020135 0
0.019875 0.011647 0
0.015921 0.005517 0
0.013361 0.001268 0
0.011835 -0.001536 0
0.011025 -0.003208 0
0.010568 -0.003999 0
0.010220 -0.004095 0
0.009832 -0.003652 0
0.009331 -0.002827 0
0.008690 -0.001775 0
0.007913 -0.000638 0
0.007018 0.000468 0
0.006030 0.001449 0
0.004982 0.002234 0
0.003905 0.002764 0
0.002834 0.002984 0
0.001818 0.002843 0
0.000929 0.002298 0
0.000275 0.001337 0
0.000000 0.000000 0
0.000000 -0.000001 0
-0.011060 0.103480 0
-0.032668 0.123095 0
-0.054542 0.103855 0
-0.072143 0.079359 0
-0.085812 0.057088 0
-0.096601 0.036209 0
-0.105171 0.016067 0
-0.111944 -0.003460 0
-0.117190 -0.022342 0
-0.121399 -0.040659 0
-0.124838 -0.058386 0
-0.127705 -0.075215 0
-0.130158 -0.090723 0
-0.132286 -0.104333 0
-0.134056 -0.115267 0
-0.135186 -0.122473 0
-0.134969 -0.124537 0
-0.132133 -0.119519 0
-0.124316 -0.105025 0
-0.108455 -0.077974 0
-0.079013 -0.034836 0
-0.030906 0.020202 0
0.009977 0.062465 0
0.033922 0.078947 0
0.045654 0.080590 0
0.050342 0.074414 0
0.050317 0.063576 0
0.047348 0.050647 0
0.042611 0.037751 0
0.037169 0.026179 0
0.031996 0.016586 0
0.027621 0.009192 0
0.024141 0.003857 0
0.021401 0.000225 0
0.019216 -0.001991 0
0.017408 -0.003033 0
0.015800 -0.003193 0
0.014270 -0.002716 0
0.012766 -0.001817 0
0.011275 -0.000689 0
0.009799 0.000512 0
0.008354 0.001659 0
0.006954 0.002657 0
0.005612 0.003436 0
0.004333 0.003937 0
0.003124 0.004101 0
0.002006 0.003853 0
0.001033 0.003114 0
0.000310 0.001830 0
0.000000 0.000000 0
0.000000 -0.000000 0
-0.008244 0.118499 0
-0.027046 0.144031 0
-0.048040 0.123382 0
-0.065558 0.094998 0
-0.079387 0.069498 0
-0.090740 0.046327 0
-0.100390 0.024446 0
-0.108755 0.003501 0
-0.116093 -0.016445 0
-0.122705 -0.035438 0
-0.129005 -0.053588 0
-0.135190 -0.070655 0
-0.141418 -0.086250 0
-0.147799 -0.099868 0
-0.154359 -0.110876 0
-0.160955 -0.118510 0
-0.167130 -0.121854 0
-0.171888 -0.119813 0
-0.173323 -0.111130 0
-0.168402 -0.094362 0
-0.152340 -0.068010 0
-0.118699 -0.030112 0
-0.067220 0.015371 0
-0.017169 0.050924 0
0.017588 0.066160 0
0.037435 0.067600 0
0.046773 0.061718 0
0.050486 0.052108 0
0.050230 0.041350 0
0.047409 0.030750 0
0.043499 0.021195 0
0.039262 0.013372 0
0.035064 0.007488 0
0.031098 0.003389 0
0.027420 0.000786 0
0.024063 -0.000583 0
0.020996 -0.000957 0
0.018188 -0.000618 0
0.015619 0.000168 0
0.013278 0.001191 0
0.011152 0.002283 0
0.009233 0.003313 0
0.007510 0.004191 0
0.005961 0.004855 0
0.004562 0.005252 0
0.003287 0.005311 0
0.002130 0.004934 0
0.001117 0.003994 0
0.000345 0.002371 0
0.000000 0.000000 0
0.000000 0.000001 0
-0.005477 0.130525 0
-0.020937 0.162891 0
-0.040698 0.142367 0
-0.058185 0.110706 0
-0.072232 0.082269 0
-0.084077 0.057212 0
-0.094658 0.034082 0
-0.104453 0.012243 0
-0.113726 -0.008392 0
-0.122517 -0.027747 0
-0.131343 -0.045902 0
-0.140428 -0.062804 0
-0.149892 -0.078114 0
-0.159786 -0.091391 0
-0.170070 -0.102111 0
-0.180563 -0.109703 0
-0.190861 -0.113605 0
-0.200198 -0.113326 0
-0.207251 -0.108512 0
-0.209955 -0.098957 0
-0.205283 -0.084538 0
-0.189286 -0.064918 0
-0.156692 -0.039066 0
-0.107557 -0.005861 0
-0.054531 0.025986 0
-0.009035 0.045228 0
0.022898 0.050525 0
0.040985 0.047191 0
0.049066 0.040828 0
0.051060 0.032910 0
0.050014 0.024732 0
0.046972 0.017627 0
0.042687 0.012020 0
0.037893 0.007870 0
0.033113 0.005045 0
0.028534 0.003390 0
0.024271 0.002682 0
0.020414 0.002662 0
0.017010 0.003093 0
0.014050 0.003778 0
0.011500 0.004556 0
0.009315 0.005301 0
0.007449 0.005929 0
0.005851 0.006384 0
0.004466 0.006611 0
0.003241 0.006533 0
0.002140 0.006023 0
0.001161 0.004898 0
0.000379 0.002947 0
0.000000 0.000001 0
0.000000 0.000002 0
-0.003028 0.139435 0
-0.014791 0.179253 0
-0.032873 0.160630 0
-0.050314 0.126532 0
-0.064644 0.095390 0
-0.076902 0.068752 0
-0.088225 0.044822 0
-0.099207 0.022569 0
-0.110133 0.001619 0
-0.121069 -0.017821 0
-0.132135 -0.035677 0
-0.143725 -0.052106 0
-0.155922 -0.066891 0
-0.168692 -0.079690 0
-0.181870 -0.090099 0
-0.195142 -0.097719 0
-0.208013 -0.102219 0
-0.219769 -0.103423 0
-0.229459 -0.101373 0
-0.235898 -0.096331 0
-0.237673 -0.088678 0
-0.233145 -0.078703 0
-0.220259 -0.066358 0
-0.196153 -0.051237 0
-0.157618 -0.032362 0
-0.110668 -0.009829 0
-0.063389 0.011699 0
-0.023280 0.025940 0
0.006912 0.031276 0
0.026517 0.029801 0
0.036177 0.025282 0
0.039184 0.020699 0
0.038173 0.016568 0
0.035083 0.012964 0
0.031163 0.010145 0
0.026913 0.008259 0
0.022691 0.007163 0
0.018781 0.006643 0
0.015352 0.006532 0
0.012433 0.006701 0
0.009983 0.007019 0
0.007951 0.007364 0
0.006283 0.007655 0
0.004914 0.007839 0
0.003775 0.007861 0
0.002797 0.007637 0
0.001917 0.007015 0
0.001102 0.005755 0
0.000395 0.003531 0
0.000000 0.000001 0
0.000000 0.000003 0
-0.001080 0.145315 0
-0.008987 0.192735 0
-0.024854 0.177890 0
-0.042116 0.142478 0
-0.056802 0.108857 0
-0.069421 0.080793 0
-0.081294 0.056387 0
-0.093186 0.034151 0
-0.105468 0.013470 0
-0.118313 -0.005745 0
-0.131482 -0.023246 0
-0.145191 -0.039016 0
-0.159601 -0.053147 0
-0.174617 -0.065444 0
-0.189973 -0.075660 0
-0.205240 -0.083559 0
-0.219834 -0.088978 0
-0.233044 -0.091880 0
-0.244089 -0.092383 0
-0.252220 -0.090743 0
-0.256792 -0.087291 0
-0.257302 -0.082332 0
-0.253276 -0.076058 0
-0.244076 -0.068502 0
-0.228749 -0.059500 0
-0.205610 -0.049000 0
-0.173713 -0.036862 0
-0.136018 -0.023111 0
-0.097818 -0.008969 0
-0.063419 0.003645 0
-0.035850 0.012065 0
-0.015416 0.015631 0
-0.001567 0.016122 0
0.006513 0.014880 0
0.010056 0.013215 0
0.010862 0.011862 0
0.010164 0.010813 0
0.008812 0.010001 0
0.007329 0.009441 0
0.005938 0.009148 0
0.004722 0.009038 0
0.003718 0.009001 0
0.002936 0.008967 0
0.002346 0.008892 0
0.001902 0.008728 0
0.001540 0.008391 0
0.001192 0.007717 0
0.000796 0.006421 0
0.000345 0.004050 0
0.000000 0.000001 0
0.000000 0.000003 0
0.000321 0.148422 0
-0.003846 0.203026 0
-0.016917 0.193759 0
-0.033708 0.158480 0
-0.048812 0.122695 0
-0.061808 0.093245 0
-0.074102 0.068587 0
-0.086663 0.046742 0
-0.099952 0.026745 0
-0.114166 0.008193 0
-0.129235 -0.008800 0
-0.144817 -0.023987 0
-0.160939 -0.037465 0
-0.177582 -0.049318 0
-0.194450 -0.059477 0
-0.211082 -0.067857 0
-0.226893 -0.074415 0
-0.241218 -0.079168 0
-0.253396 -0.082197 0
-0.262849 -0.083628 0
-0.269161 -0.083596 0
-0.272105 -0.082218 0
-0.271614 -0.079584 0
-0.267709 -0.075764 0
-0.260395 -0.070828 0
-0.249529 -0.064865 0
-0.235006 -0.057893 0
-0.216434 -0.049955 0
-0.193559 -0.041323 0
-0.166996 -0.032167 0
-0.138258 -0.022722 0
-0.110460 -0.013583 0
-0.085525 -0.005361 0
-0.064507 0.001341 0
-0.047764 0.005796 0
-0.034908 0.008151 0
-0.025348 0.009213 0
-0.018515 0.009478 0
-0.013825 0.009405 0
-0.010573 0.009308 0
-0.008187 0.009239 0
-0.006328 0.009150 0
-0.004787 0.009028 0
-0.003467 0.008873 0
-0.002315 0.008667 0
-0.001333 0.008347 0
-0.000555 0.007758 0
-0.000045 0.006602 0
0.000125 0.004328 0
0.000000 0.000000 0
0.000000 0.000004 0
0.001343 0.149160 0
0.000364 0.209973 0
-0.009357 0.207753 0
-0.025205 0.174373 0
-0.040728 0.136957 0
-0.054182 0.106083 0
-0.066832 0.081242 0
-0.079854 0.060002 0
-0.093791 0.040973 0
-0.108866 0.023538 0
-0.125142 0.007405 0
-0.142291 -0.007313 0
-0.159878 -0.020382 0
-0.177629 -0.031933 0
-0.195434 -0.042161 0
-0.212889 -0.051117 0
-0.229510 -0.058841 0
-0.244738 -0.065376 0
-0.258026 -0.070751 0
-0.268892 -0.074977 0
-0.276961 -0.078035 0
-0.281995 -0.079879 0
-0.283883 -0.080454 0
-0.282635 -0.079721 0
-0.278366 -0.077679 0
-0.271271 -0.074389 0
-0.261604 -0.069958 0
-0.249550 -0.064558 0
-0.235291 -0.058406 0
-0.219091 -0.051657 0
-0.201070 -0.044471 0
-0.181456 -0.037102 0
-0.160680 -0.029832 0
-0.139333 -0.022881 0
-0.118282 -0.016384 0
-0.098724 -0.010554 0
-0.081243 -0.005580 0
-0.066096 -0.001522 0
-0.053275 0.001499 0
-0.042547 0.003509 0
-0.033600 0.004792 0
-0.026146 0.005602 0
-0.019954 0.006106 0
-0.014807 0.006420 0
-0.010535 0.006595 0
-0.006979 0.006631 0
-0.004070 0.006429 0
-0.001840 0.005741 0
-0.000424 0.004005 0
0.000000 -0.000000 0
0.000000 0.000005 0
0.002139 0.148058 0
0.003563 0.213726 0
-0.002503 0.219328 0
-0.016769 0.189851 0
-0.032577 0.151673 0
-0.046597 0.119349 0
-0.059613 0.094259 0
-0.072965 0.073701 0
-0.087298 0.055758 0
-0.102817 0.039544 0
-0.119544 0.024625 0
-0.137394 0.010749 0
-0.155947 -0.002126 0
-0.174672 -0.013762 0
-0.193089 -0.024217 0
-0.210955 -0.033780 0
-0.228025 -0.042566 0
-0.243891 -0.050652 0
-0.258144 -0.058043 0
-0.270372 -0.064693 0
-0.280211 -0.070492 0
-0.287365 -0.075297 0
-0.291615 -0.078944 0
-0.292833 -0.081280 0
-0.291000 -0.082192 0
-0.286209 -0.081627 0
-0.278670 -0.079613 0
-0.268682 -0.076268 0
-0.256627 -0.071783 0
-0.242922 -0.066388 0
-0.227909 -0.060357 0
-0.211890 -0.053974 0
-0.195147 -0.047484 0
-0.177954 -0.041056 0
-0.160538 -0.034813 0
-0.143081 -0.028888 0
-0.125842 -0.023415 0
-0.109066 -0.018491 0
-0.093008 -0.014144 0
-0.078019 -0.010366 0
-0.064334 -0.007162 0
-0.052024 -0.004496 0
-0.041087 -0.002312 0
-0.031452 -0.000546 0
-0.023039 0.000840 0
-0.015781 0.001882 0
-0.009664 0.002620 0
-0.004776 0.002957 0
-0.001382 0.002487 0
0.000000 -0.000001 0
0.000000 0.000005 0
0.002729 0.145597 0
0.005903 0.214615 0
0.003278 0.228085 0
-0.008620 0.204448 0
-0.024388 0.166784 0
-0.039048 0.133118 0
-0.052490 0.107611 0
-0.066100 0.087688 0
-0.080646 0.070825 0
-0.096321 0.055783 0
-0.113093 0.041982 0
-0.130839 0.029091 0
-0.149382 0.016896 0
-0.168381 0.005209 0
-0.187223 -0.005877 0
-0.205493 -0.016180 0
-0.222786 -0.025904 0
-0.239002 -0.035257 0
-0.253930 -0.044271 0
-0.267268 -0.052909 0
-0.278668 -0.061041 0
-0.287796 -0.068475 0
-0.294347 -0.074986 0
-0.298069 -0.080335 0
-0.298788 -0.084304 0
-0.296434 -0.086719 0
-0.291061 -0.087485 0
-0.282856 -0.086600 0
-0.272132 -0.084165 0
-0.259298 -0.080375 0
-0.244810 -0.075503 0
-0.229147 -0.069864 0
-0.212756 -0.063768 0
-0.196019 -0.057489 0
-0.179206 -0.051256 0
-0.162495 -0.045250 0
-0.146024 -0.039595 0
-0.129903 -0.034356 0
-0.114243 -0.029548 0
-0.099120 -0.025165 0
-0.084613 -0.021203 0
-0.070812 -0.017645 0
-0.057793 -0.014465 0
-0.045636 -0.011629 0
-0.034421 -0.009077 0
-0.024279 -0.006743 0
-0.015366 -0.004576 0
-0.007933 -0.002541 0
-0.002475 -0.000771 0
0.000000 -0.000003 0
0.000000 0.000005 0
0.003140 0.142154 0
0.007552 0.213178 0
0.007710 0.233851 0
-0.000995 0.217516 0
-0.016232 0.182101 0
-0.031504 0.147451 0
-0.045448 0.121311 0
-0.059275 0.101857 0
-0.073888 0.085979 0
-0.089507 0.071991 0
-0.106057 0.059143 0
-0.123385 0.047039 0
-0.141303 0.035415 0
-0.159603 0.024079 0
-0.178101 0.012896 0
-0.196356 0.001783 0
-0.213897 -0.009057 0
-0.230394 -0.019507 0
-0.245675 -0.029777 0
-0.259733 -0.039955 0
-0.272307 -0.049964 0
-0.283070 -0.059618 0
-0.291674 -0.068671 0
-0.297781 -0.076840 0
-0.301090 -0.083827 0
-0.301376 -0.089353 0
-0.298521 -0.093191 0
-0.292543 -0.095198 0
-0.283612 -0.095341 0
-0.272038 -0.093709 0
-0.258248 -0.090507 0
-0.242747 -0.086028 0
-0.226065 -0.080612 0
-0.208699 -0.074607 0
-0.191073 -0.068336 0
-0.173519 -0.062070 0
-0.156285 -0.056007 0
-0.139532 -0.050271 0
-0.123358 -0.044927 0
-0.107799 -0.039996 0
-0.092872 -0.035470 0
-0.078591 -0.031316 0
-0.064975 -0.027488 0
-0.052066 -0.023918 0
-0.039937 -0.020518 0
-0.028697 -0.017172 0
-0.018533 -0.013726 0
-0.009792 -0.009935 0
-0.003139 -0.005446 0
0.000000 -0.000004 0
0.000000 0.000006 0
0.003400 0.138045 0
0.008637 0.210045 0
0.010876 0.236632 0
0.005606 0.228390 0
-0.008195 0.197293 0
-0.023909 0.162334 0
-0.038420 0.135382 0
-0.052449 0.116128 0
-0.067011 0.101057 0
-0.082397 0.087952 0
-0.098524 0.075861 0
-0.115221 0.064337 0
-0.132315 0.053114 0
-0.149648 0.042007 0
-0.167080 0.030876 0
-0.184467 0.019616 0
-0.201653 0.008134 0
-0.218202 -0.003479 0
-0.233772 -0.014931 0
-0.248126 -0.026277 0
-0.261371 -0.037704 0
-0.273280 -0.049108 0
-0.283517 -0.060275 0
-0.291708 -0.070919 0
-0.297472 -0.080708 0
-0.300458 -0.089288 0
-0.300385 -0.096317 0
-0.297088 -0.101509 0
-0.290551 -0.104671 0
-0.280931 -0.105739 0
-0.268547 -0.104794 0
-0.253856 -0.102046 0
-0.237399 -0.097816 0
-0.219745 -0.092482 0
-0.201428 -0.086436 0
-0.182913 -0.080038 0
-0.164571 -0.073582 0
-0.146669 -0.067283 0
-0.129382 -0.061281 0
-0.112807 -0.055650 0
-0.096992 -0.050411 0
-0.081957 -0.045542 0
-0.067709 -0.040990 0
-0.054263 -0.036666 0
-0.041658 -0.032446 0
-0.029975 -0.028147 0
-0.019386 -0.023481 0
-0.010240 -0.017936 0
-0.003259 -0.010563 0
0.000000 -0.000004 0
0.000000 0.000006 0
0.003537 0.133517 0
0.009279 0.205702 0
0.013022 0.236882 0
0.010698 0.236587 0
-0.000427 0.211616 0
-0.016254 0.177676 0
-0.031326 0.149852 0
-0.045561 0.130448 0
-0.059978 0.115927 0
-0.074991 0.103504 0
-0.090550 0.091968 0
-0.106486 0.080831 0
-0.122639 0.069842 0
-0.138882 0.058844 0
-0.155117 0.047716 0
-0.171266 0.036357 0
-0.187263 0.024678 0
-0.203052 0.012612 0
-0.218403 0.000148 0
-0.232908 -0.012356 0
-0.246340 -0.024810 0
-0.258820 -0.037471 0
-0.270139 -0.050242 0
-0.279944 -0.062884 0
-0.287837 -0.075076 0
-0.293389 -0.086440 0
-0.296191 -0.096561 0
-0.295899 -0.105031 0
-0.292295 -0.111497 0
-0.285328 -0.115713 0
-0.275144 -0.117583 0
-0.262078 -0.117176 0
-0.246619 -0.114723 0
-0.229352 -0.110578 0
-0.210893 -0.105168 0
-0.191818 -0.098927 0
-0.172623 -0.092251 0
-0.153693 -0.085461 0
-0.135305 -0.078790 0
-0.117640 -0.072386 0
-0.100803 -0.066320 0
-0.084850 -0.060600 0
-0.069810 -0.055181 0
-0.055703 -0.049968 0
-0.042566 -0.044805 0
-0.030474 -0.039444 0
-0.019591 -0.033461 0
-0.010259 -0.026062 0
-0.003210 -0.015685 0
0.000000 -0.000003 0
0.000000 0.000006 0
0.003575 0.128766 0
0.009576 0.200560 0
0.014342 0.235212 0
0.014346 0.241839 0
0.006488 0.224245 0
-0.008544 0.193232 0
-0.024076 0.164689 0
-0.038532 0.144780 0
-0.052747 0.130487 0
-0.067285 0.118524 0
-0.082176 0.107356 0
-0.097272 0.096427 0
-0.112423 0.085511 0
-0.127515 0.074485 0
-0.142473 0.063260 0
-0.157258 0.051763 0
-0.171860 0.039920 0
-0.186287 0.027661 0
-0.200539 0.014926 0
-0.214563 0.001661 0
-0.227917 -0.011791 0
-0.240388 -0.025308 0
-0.252146 -0.039150 0
-0.262957 -0.053221 0
-0.272464 -0.067263 0
-0.280230 -0.080934 0
-0.285773 -0.093807 0