# vtk DataFile Version 2.0
generated by CFD-lab course output (written by Tobias Neckel) 
ASCII

DATASET STRUCTURED_GRID
DIMENSIONS  51 51 1 
POINTS 2601 float

0.000000 0.000000 0
0.020000 0.000000 0
0.040000 0.000000 0
0.060000 0.000000 0
0.080000 0.000000 0
0.100000 0.000000 0
0.120000 0.000000 0
0.140000 0.000000 0
0.160000 0.000000 0
0.180000 0.000000 0
0.200000 0.000000 0
0.220000 0.000000 0
0.240000 0.000000 0
0.260000 0.000000 0
0.280000 0.000000 0
0.300000 0.000000 0
0.320000 0.000000 0
0.340000 0.000000 0
0.360000 0.000000 0
0.380000 0.000000 0
0.400000 0.000000 0
0.420000 0.000000 0
0.440000 0.000000 0
0.460000 0.000000 0
0.480000 0.000000 0
0.500000 0.000000 0
0.520000 0.000000 0
0.540000 0.000000 0
0.560000 0.000000 0
0.580000 0.000000 0
0.600000 0.000000 0
0.620000 0.000000 0
0.640000 0.000000 0
0.660000 0.000000 0
0.680000 0.000000 0
0.700000 0.000000 0
0.720000 0.000000 0
0.740000 0.000000 0
0.760000 0.000000 0
0.780000 0.000000 0
0.800000 0.000000 0
0.820000 0.000000 0
0.840000 0.000000 0
0.860000 0.000000 0
0.880000 0.000000 0
0.900000 0.000000 0
0.920000 0.000000 0
0.940000 0.000000 0
0.960000 0.000000 0
0.980000 0.000000 0
1.000000 0.000000 0
0.000000 0.020000 0
0.020000 0.020000 0
0.040000 0.020000 0
0.060000 0.020000 0
0.080000 0.020000 0
0.100000 0.020000 0
0.120000 0.020000 0
0.140000 0.020000 0
0.160000 0.020000 0
0.180000 0.020000 0
0.200000 0.020000 0
0.220000 0.020000 0
0.240000 0.020000 0
0.260000 0.020000 0
0.280000 0.020000 0
0.300000 0.020000 0
0.320000 0.020000 0
0.340000 0.020000 0
0.360000 0.020000 0
0.380000 0.020000 0
0.400000 0.020000 0
0.420000 0.020000 0
0.440000 0.020000 0
0.460000 0.020000 0
0.480000 0.020000 0
0.500000 0.020000 0
0.520000 0.020000 0
0.540000 0.020000 0
0.560000 0.020000 0
0.580000 0.020000 0
0.600000 0.020000 0
0.620000 0.020000 0
0.640000 0.020000 0
0.660000 0.020000 0
0.680000 0.020000 0
0.700000 0.020000 0
0.720000 0.020000 0
0.740000 0.020000 0
0.760000 0.020000 0
0.780000 0.020000 0
0.800000 0.020000 0
0.820000 0.020000 0
0.840000 0.020000 0
0.860000 0.020000 0
0.880000 0.020000 0
0.900000 0.020000 0
0.920000 0.020000 0
0.940000 0.020000 0
0.960000 0.020000 0
0.980000 0.020000 0
1.000000 0.020000 0
0.000000 0.040000 0
0.020000 0.040000 0
0.040000 0.040000 0
0.060000 0.040000 0
0.080000 0.040000 0
0.100000 0.040000 0
0.120000 0.040000 0
0.140000 0.040000 0
0.160000 0.040000 0
0.180000 0.040000 0
0.200000 0.040000 0
0.220000 0.040000 0
0.240000 0.040000 0
0.260000 0.040000 0
0.280000 0.040000 0
0.300000 0.040000 0
0.320000 0.040000 0
0.340000 0.040000 0
0.360000 0.040000 0
0.380000 0.040000 0
0.400000 0.040000 0
0.420000 0.040000 0
0.440000 0.040000 0
0.460000 0.040000 0
0.480000 0.040000 0
0.500000 0.040000 0
0.520000 0.040000 0
0.540000 0.040000 0
0.560000 0.040000 0
0.580000 0.040000 0
0.600000 0.040000 0
0.620000 0.040000 0
0.640000 0.040000 0
0.660000 0.040000 0
0.680000 0.040000 0
0.700000 0.040000 0
0.720000 0.040000 0
0.740000 0.040000 0
0.760000 0.040000 0
0.780000 0.040000 0
0.800000 0.040000 0
0.820000 0.040000 0
0.840000 0.040000 0
0.860000 0.040000 0
0.880000 0.040000 0
0.900000 0.040000 0
0.920000 0.040000 0
0.940000 0.040000 0
0.960000 0.040000 0
0.980000 0.040000 0
1.000000 0.040000 0
0.000000 0.060000 0
0.020000 0.060000 0
0.040000 0.060000 0
0.060000 0.060000 0
0.080000 0.060000 0
0.100000 0.060000 0
0.120000 0.060000 0
0.140000 0.060000 0
0.160000 0.060000 0
0.180000 0.060000 0
0.200000 0.060000 0
0.220000 0.060000 0
0.240000 0.060000 0
0.260000 0.060000 0
0.280000 0.060000 0
0.300000 0.060000 0
0.320000 0.060000 0
0.340000 0.060000 0
0.360000 0.060000 0
0.380000 0.060000 0
0.400000 0.060000 0
0.420000 0.060000 0
0.440000 0.060000 0
0.460000 0.060000 0
0.480000 0.060000 0
0.500000 0.060000 0
0.520000 0.060000 0
0.540000 0.060000 0
0.560000 0.060000 0
0.580000 0.060000 0
0.600000 0.060000 0
0.620000 0.060000 0
0.640000 0.060000 0
0.660000 0.060000 0
0.680000 0.060000 0
0.700000 0.060000 0
0.720000 0.060000 0
0.740000 0.060000 0
0.760000 0.060000 0
0.780000 0.060000 0
0.800000 0.060000 0
0.820000 0.060000 0
0.840000 0.060000 0
0.860000 0.060000 0
0.880000 0.060000 0
0.900000 0.060000 0
0.920000 0.060000 0
0.940000 0.060000 0
0.960000 0.060000 0
0.980000 0.060000 0
1.000000 0.060000 0
0.000000 0.080000 0
0.020000 0.080000 0
0.040000 0.080000 0
0.060000 0.080000 0
0.080000 0.080000 0
0.100000 0.080000 0
0.120000 0.080000 0
0.140000 0.080000 0
0.160000 0.080000 0
0.180000 0.080000 0
0.200000 0.080000 0
0.220000 0.080000 0
0.240000 0.080000 0
0.260000 0.080000 0
0.280000 0.080000 0
0.300000 0.080000 0
0.320000 0.080000 0
0.340000 0.080000 0
0.360000 0.080000 0
0.380000 0.080000 0
0.400000 0.080000 0
0.420000 0.080000 0
0.440000 0.080000 0
0.460000 0.080000 0
0.480000 0.080000 0
0.500000 0.080000 0
0.520000 0.080000 0
0.540000 0.080000 0
0.560000 0.080000 0
0.580000 0.080000 0
0.600000 0.080000 0
0.620000 0.080000 0
0.640000 0.080000 0
0.660000 0.080000 0
0.680000 0.080000 0
0.700000 0.080000 0
0.720000 0.080000 0
0.740000 0.080000 0
0.760000 0.080000 0
0.780000 0.080000 0
0.800000 0.080000 0
0.820000 0.080000 0
0.840000 0.080000 0
0.860000 0.080000 0
0.880000 0.080000 0
0.900000 0.080000 0
0.920000 0.080000 0
0.940000 0.080000 0
0.960000 0.080000 0
0.980000 0.080000 0
1.000000 0.080000 0
0.000000 0.100000 0
0.020000 0.100000 0
0.040000 0.100000 0
0.060000 0.100000 0
0.080000 0.100000 0
0.100000 0.100000 0
0.120000 0.100000 0
0.140000 0.100000 0
0.160000 0.100000 0
0.180000 0.100000 0
0.200000 0.100000 0
0.220000 0.100000 0
0.240000 0.100000 0
0.260000 0.100000 0
0.280000 0.100000 0
0.300000 0.100000 0
0.320000 0.100000 0
0.340000 0.100000 0
0.360000 0.100000 0
0.380000 0.100000 0
0.400000 0.100000 0
0.420000 0.100000 0
0.440000 0.100000 0
0.460000 0.100000 0
0.480000 0.100000 0
0.500000 0.100000 0
0.520000 0.100000 0
0.540000 0.100000 0
0.560000 0.100000 0
0.580000 0.100000 0
0.600000 0.100000 0
0.620000 0.100000 0
0.640000 0.100000 0
0.660000 0.100000 0
0.680000 0.100000 0
0.700000 0.100000 0
0.720000 0.100000 0
0.740000 0.100000 0
0.760000 0.100000 0
0.780000 0.100000 0
0.800000 0.100000 0
0.820000 0.100000 0
0.840000 0.100000 0
0.860000 0.100000 0
0.880000 0.100000 0
0.900000 0.100000 0
0.920000 0.100000 0
0.940000 0.100000 0
0.960000 0.100000 0
0.980000 0.100000 0
1.000000 0.100000 0
0.000000 0.120000 0
0.020000 0.120000 0
0.040000 0.120000 0
0.060000 0.120000 0
0.080000 0.120000 0
0.100000 0.120000 0
0.120000 0.120000 0
0.140000 0.120000 0
0.160000 0.120000 0
0.180000 0.120000 0
0.200000 0.120000 0
0.220000 0.120000 0
0.240000 0.120000 0
0.260000 0.120000 0
0.280000 0.120000 0
0.300000 0.120000 0
0.320000 0.120000 0
0.340000 0.120000 0
0.360000 0.120000 0
0.380000 0.120000 0
0.400000 0.120000 0
0.420000 0.120000 0
0.440000 0.120000 0
0.460000 0.120000 0
0.480000 0.120000 0
0.500000 0.120000 0
0.520000 0.120000 0
0.540000 0.120000 0
0.560000 0.120000 0
0.580000 0.120000 0
0.600000 0.120000 0
0.620000 0.120000 0
0.640000 0.120000 0
0.660000 0.120000 0
0.680000 0.120000 0
0.700000 0.120000 0
0.720000 0.120000 0
0.740000 0.120000 0
0.760000 0.120000 0
0.780000 0.120000 0
0.800000 0.120000 0
0.820000 0.120000 0
0.840000 0.120000 0
0.860000 0.120000 0
0.880000 0.120000 0
0.900000 0.120000 0
0.920000 0.120000 0
0.940000 0.120000 0
0.960000 0.120000 0
0.980000 0.120000 0
1.000000 0.120000 0
0.000000 0.140000 0
0.020000 0.140000 0
0.040000 0.140000 0
0.060000 0.140000 0
0.080000 0.140000 0
0.100000 0.140000 0
0.120000 0.140000 0
0.140000 0.140000 0
0.160000 0.140000 0
0.180000 0.140000 0
0.200000 0.140000 0
0.220000 0.140000 0
0.240000 0.140000 0
0.260000 0.140000 0
0.280000 0.140000 0
0.300000 0.140000 0
0.320000 0.140000 0
0.340000 0.140000 0
0.360000 0.140000 0
0.380000 0.140000 0
0.400000 0.140000 0
0.420000 0.140000 0
0.440000 0.140000 0
0.460000 0.140000 0
0.480000 0.140000 0
0.500000 0.140000 0
0.520000 0.140000 0
0.540000 0.140000 0
0.560000 0.140000 0
0.580000 0.140000 0
0.600000 0.140000 0
0.620000 0.140000 0
0.640000 0.140000 0
0.660000 0.140000 0
0.680000 0.140000 0
0.700000 0.140000 0
0.720000 0.140000 0
0.740000 0.140000 0
0.760000 0.140000 0
0.780000 0.140000 0
0.800000 0.140000 0
0.820000 0.140000 0
0.840000 0.140000 0
0.860000 0.140000 0
0.880000 0.140000 0
0.900000 0.140000 0
0.920000 0.140000 0
0.940000 0.140000 0
0.960000 0.140000 0
0.980000 0.140000 0
1.000000 0.140000 0
0.000000 0.160000 0
0.020000 0.160000 0
0.040000 0.160000 0
0.060000 0.160000 0
0.080000 0.160000 0
0.100000 0.160000 0
0.120000 0.160000 0
0.140000 0.160000 0
0.160000 0.160000 0
0.180000 0.160000 0
0.200000 0.160000 0
0.220000 0.160000 0
0.240000 0.160000 0
0.260000 0.160000 0
0.280000 0.160000 0
0.300000 0.160000 0
0.320000 0.160000 0
0.340000 0.160000 0
0.360000 0.160000 0
0.380000 0.160000 0
0.400000 0.160000 0
0.420000 0.160000 0
0.440000 0.160000 0
0.460000 0.160000 0
0.480000 0.160000 0
0.500000 0.160000 0
0.520000 0.160000 0
0.540000 0.160000 0
0.560000 0.160000 0
0.580000 0.160000 0
0.600000 0.160000 0
0.620000 0.160000 0
0.640000 0.160000 0
0.660000 0.160000 0
0.680000 0.160000 0
0.700000 0.160000 0
0.720000 0.160000 0
0.740000 0.160000 0
0.760000 0.160000 0
0.780000 0.160000 0
0.800000 0.160000 0
0.820000 0.160000 0
0.840000 0.160000 0
0.860000 0.160000 0
0.880000 0.160000 0
0.900000 0.160000 0
0.920000 0.160000 0
0.940000 0.160000 0
0.960000 0.160000 0
0.980000 0.160000 0
1.000000 0.160000 0
0.000000 0.180000 0
0.020000 0.180000 0
0.040000 0.180000 0
0.060000 0.180000 0
0.080000 0.180000 0
0.100000 0.180000 0
0.120000 0.180000 0
0.140000 0.180000 0
0.160000 0.180000 0
0.180000 0.180000 0
0.200000 0.180000 0
0.220000 0.180000 0
0.240000 0.180000 0
0.260000 0.180000 0
0.280000 0.180000 0
0.300000 0.180000 0
0.320000 0.180000 0
0.340000 0.180000 0
0.360000 0.180000 0
0.380000 0.180000 0
0.400000 0.180000 0
0.420000 0.180000 0
0.440000 0.180000 0
0.460000 0.180000 0
0.480000 0.180000 0
0.500000 0.180000 0
0.520000 0.180000 0
0.540000 0.180000 0
0.560000 0.180000 0
0.580000 0.180000 0
0.600000 0.180000 0
0.620000 0.180000 0
[...]
POINT_DATA 2601 

VECTORS velocity float
0.000000 0.000000 0
0.000001 0.000000 0
0.000004 0.000000 0
0.000008 0.000000 0
0.000013 0.000000 0
0.000018 0.000000 0
0.000022 0.000000 0
0.000026 0.000000 0
0.000028 0.000000 0
0.000028 0.000000 0
0.000025 0.000000 0
0.000020 0.000000 0
0.000015 0.000000 0
0.000008 0.000000 0
0.000002 0.000000 0
-0.000002 0.000000 0
-0.000006 0.000000 0
-0.000010 0.000000 0
-0.000013 0.000000 0
-0.000017 0.000000 0
-0.000020 0.000000 0
-0.000024 0.000000 0
-0.000028 0.000000 0
-0.000031 0.000000 0
-0.000034 0.000000 0
-0.000036 0.000000 0
-0.000036 0.000000 0
-0.000034 0.000000 0
-0.000029 0.000000 0
-0.000022 0.000000 0
-0.000011 0.000000 0
-0.000002 0.000000 0
0.000004 0.000000 0
0.000007 0.000000 0
0.000007 0.000000 0
0.000007 0.000000 0
0.000006 0.000000 0
0.000005 0.000000 0
0.000004 0.000000 0
0.000004 0.000000 0
0.000003 0.000000 0
0.000003 0.000000 0
0.000002 0.000000 0
0.000002 0.000000 0
0.000002 0.000000 0
0.000001 0.000000 0
0.000001 0.000000 0
0.000001 0.000000 0
0.000000 0.000000 0
0.000000 0.000000 0
0.000000 0.000000 0
0.000000 -0.000001 0
-0.005827 0.004446 0
-0.013592 0.003392 0
-0.016840 -0.000597 0
-0.014975 -0.004611 0
-0.008686 -0.008178 0
0.001636 -0.011053 0
0.015537 -0.013067 0
0.032087 -0.014005 0
0.050125 -0.013672 0
0.068523 -0.012202 0
0.085964 -0.009798 0
0.101221 -0.006865 0
0.113321 -0.003882 0
0.121670 -0.001283 0
0.126098 0.000716 0
0.126848 0.002245 0
0.124510 0.003493 0
0.119717 0.004541 0
0.112930 0.005462 0
0.104484 0.006307 0
0.094642 0.007094 0
0.083632 0.007809 0
0.071697 0.008406 0
0.059122 0.008814 0
0.046251 0.008951 0
0.033489 0.008746 0
0.021277 0.008156 0
0.010069 0.007114 0
0.000384 0.005435 0
-0.006893 0.003409 0
-0.011361 0.001697 0
-0.013729 0.000596 0
-0.014825 0.000060 0
-0.015252 -0.000146 0
-0.015331 -0.000222 0
-0.015197 -0.000270 0
-0.014884 -0.000330 0
-0.014389 -0.000412 0
-0.013699 -0.000511 0
-0.012805 -0.000619 0
-0.011706 -0.000728 0
-0.010413 -0.000829 0
-0.008948 -0.000912 0
-0.007351 -0.000968 0
-0.005676 -0.000984 0
-0.004002 -0.000943 0
-0.002436 -0.000818 0
-0.001125 -0.000577 0
-0.000257 -0.000222 0
0.000000 0.000000 0
0.000000 -0.000004 0
-0.009109 0.013591 0
-0.021005 0.011013 0
-0.027721 0.001383 0
-0.028498 -0.008154 0
-0.024419 -0.016610 0
-0.015943 -0.024223 0
-0.003126 -0.030451 0
0.013685 -0.034587 0
0.034116 -0.036435 0
0.057160 -0.035839 0
0.081640 -0.032697 0
0.106032 -0.027355 0
0.128649 -0.020448 0
0.147846 -0.012776 0
0.162197 -0.005177 0
0.170787 0.001589 0
0.173424 0.007131 0
0.170656 0.011580 0
0.163507 0.015233 0
0.152843 0.018287 0
0.139405 0.020851 0
0.123848 0.022943 0
0.106779 0.024509 0
0.088790 0.025445 0
0.070469 0.025632 0
0.052390 0.024973 0
0.035101 0.023419 0
0.019114 0.020892 0
0.004919 0.016960 0
-0.006763 0.011744 0
-0.014674 0.006835 0
-0.019535 0.003464 0
-0.022349 0.001522 0
-0.023908 0.000505 0
-0.024684 -0.000056 0
-0.024918 -0.000447 0
-0.024718 -0.000808 0
-0.024122 -0.001185 0
-0.023135 -0.001584 0
-0.021764 -0.001994 0
-0.020021 -0.002393 0
-0.017933 -0.002758 0
-0.015541 -0.003062 0
-0.012911 -0.003273 0
-0.010134 -0.003350 0
-0.007334 -0.003241 0
-0.004675 -0.002877 0
-0.002371 -0.002179 0
-0.000699 -0.001125 0
0.000000 0.000000 0
0.000000 -0.000006 0
-0.010539 0.025451 0
-0.025060 0.022004 0
-0.034903 0.006896 0
-0.039066 -0.007913 0
-0.038637 -0.020732 0
-0.034284 -0.032345 0
-0.026159 -0.042695 0
-0.014062 -0.051247 0
0.002187 -0.057147 0
0.022407 -0.059726 0
0.045958 -0.058669 0
0.071691 -0.053873 0
0.098122 -0.045696 0
0.123535 -0.034831 0
0.146033 -0.022225 0
0.163792 -0.008983 0
0.175311 0.003624 0
0.179646 0.014458 0
0.177255 0.023275 0
0.169219 0.030408 0
0.156678 0.036088 0
0.140743 0.040435 0
0.122464 0.043463 0
0.102813 0.045123 0
0.082657 0.045351 0
0.062746 0.044114 0
0.043709 0.041431 0
0.026064 0.037295 0
0.010218 0.031311 0
-0.003547 0.023001 0
-0.013853 0.014468 0
-0.020678 0.008272 0
-0.024995 0.004433 0
-0.027666 0.002189 0
-0.029229 0.000788 0
-0.029976 -0.000236 0
-0.030066 -0.001126 0
-0.029578 -0.001995 0
-0.028544 -0.002868 0
-0.026989 -0.003733 0
-0.024942 -0.004560 0
-0.022447 -0.005309 0
-0.019562 -0.005934 0
-0.016368 -0.006375 0
-0.012974 -0.006562 0
-0.009524 -0.006403 0
-0.006203 -0.005781 0
-0.003257 -0.004552 0
-0.001022 -0.002593 0
0.000000 0.000000 0
0.000000 -0.000007 0
-0.010696 0.038652 0
-0.026683 0.035377 0
-0.038934 0.015389 0
-0.045879 -0.004420 0
-0.048334 -0.021392 0
-0.047126 -0.036700 0
-0.042428 -0.050673 0
-0.034242 -0.062933 0
-0.022484 -0.072904 0
-0.006872 -0.079609 0
0.012581 -0.081980 0
0.035511 -0.079518 0
0.060663 -0.072291 0
0.086711 -0.060687 0
0.111936 -0.045435 0
0.134434 -0.027690 0
0.152476 -0.008724 0
0.164398 0.009635 0
0.168629 0.025658 0
0.165820 0.038863 0
0.156996 0.049326 0
0.143448 0.057156 0
0.126559 0.062439 0
0.107644 0.065252 0
0.087852 0.065699 0
0.068115 0.063921 0
0.049152 0.060099 0
0.031501 0.054382 0
0.015520 0.046571 0
0.001292 0.035815 0
-0.010679 0.023967 0
-0.019064 0.014606 0
-0.024624 0.008509 0
-0.028216 0.004738 0
-0.030447 0.002254 0
-0.031664 0.000390 0
-0.032057 -0.001206 0
-0.031743 -0.002707 0
-0.030778 -0.004174 0
-0.029206 -0.005595 0
-0.027072 -0.006935 0
-0.024430 -0.008139 0
-0.021352 -0.009142 0
-0.017928 -0.009860 0
-0.014274 -0.010194 0
-0.010541 -0.010012 0
-0.006921 -0.009144 0
-0.003673 -0.007361 0
-0.001168 -0.004383 0
0.000000 0.000000 0
0.000000 -0.000008 0
-0.009927 0.052134 0
-0.026382 0.050242 0
-0.040356 0.026092 0
-0.049381 0.001488 0
-0.054033 -0.019486 0
-0.055241 -0.038251 0
-0.053276 -0.055579 0
-0.048157 -0.071190 0
-0.039859 -0.084516 0
-0.028364 -0.094790 0
-0.013443 -0.101051 0
0.005079 -0.101955 0
0.026939 -0.096896 0
0.050841 -0.086104 0
0.075482 -0.069948 0
0.098980 -0.049523 0
0.119699 -0.026342 0
0.135998 -0.001697 0
0.145936 0.021851 0
0.148661 0.042040 0
0.144711 0.058459 0
0.135231 0.070871 0
0.121646 0.079266 0
0.105394 0.083829 0
0.087754 0.084880 0
0.069770 0.082814 0
0.052236 0.078045 0
0.035726 0.070927 0
0.020604 0.061520 0
0.006908 0.049199 0
-0.005731 0.034824 0
-0.015436 0.022216 0
-0.022140 0.013585 0
-0.026574 0.008011 0
-0.029400 0.004236 0
-0.031036 0.001375 0
-0.031720 -0.001048 0
-0.031601 -0.003274 0
-0.030767 -0.005405 0
-0.029275 -0.007440 0
-0.027182 -0.009336 0
-0.024554 -0.011030 0
-0.021470 -0.012436 0
-0.018030 -0.013453 0
-0.014356 -0.013949 0
-0.010599 -0.013757 0
-0.006954 -0.012649 0
-0.003684 -0.010305 0
-0.001165 -0.006266 0
0.000000 -0.000000 0
0.000000 -0.000008 0
-0.008490 0.065034 0
-0.024515 0.065805 0
-0.039597 0.038387 0
-0.050183 0.009257 0
-0.056613 -0.015532 0
-0.059753 -0.037456 0
-0.060144 -0.057757 0
-0.057834 -0.076350 0
-0.052772 -0.092696 0
-0.044881 -0.106025 0
-0.034082 -0.115422 0
-0.020283 -0.119899 0
-0.003131 -0.118054 0
0.016957 -0.109231 0
0.039198 -0.093575 0
0.061713 -0.071908 0
0.083132 -0.045742 0
0.101227 -0.016603 0
0.115059 0.012994 0
0.122035 0.040087 0
0.122727 0.062755 0
0.118000 0.080220 0
0.108992 0.092275 0
0.096927 0.099143 0
0.082964 0.101322 0
0.068107 0.099438 0
0.053162 0.094143 0
0.038740 0.086013 0
0.025235 0.075389 0
0.012712 0.062149 0
0.000673 0.046311 0
-0.010063 0.031014 0
-0.017862 0.019647 0
-0.023164 0.011998 0
-0.026607 0.006715 0
-0.028682 0.002710 0
-0.029682 -0.000642 0
-0.029787 -0.003661 0
-0.029130 -0.006500 0
-0.027783 -0.009180 0
-0.025812 -0.011656 0
-0.023295 -0.013851 0
-0.020324 -0.015665 0
-0.017010 -0.016975 0
-0.013482 -0.017626 0
-0.009896 -0.017414 0
-0.006443 -0.016059 0
-0.003375 -0.013150 0
-0.001049 -0.008067 0
0.000000 -0.000000 0
0.000000 -0.000008 0
-0.006627 0.076649 0
-0.021412 0.081349 0
-0.037072 0.051760 0
-0.048875 0.018504 0
-0.056677 -0.009916 0
-0.061348 -0.034720 0
-0.063736 -0.057497 0
-0.063976 -0.078561 0
-0.062031 -0.097468 0
-0.057776 -0.113480 0
-0.051041 -0.125649 0
-0.041687 -0.132905 0
-0.029648 -0.134136 0
-0.014576 -0.128434 0
0.003188 -0.114704 0
0.023036 -0.093459 0
0.043602 -0.065857 0
0.062310 -0.033625 0
0.078177 0.001043 0
0.088620 0.034370 0
0.093431 0.062493 0
0.093565 0.084605 0
0.089819 0.100339 0
0.082973 0.109856 0
0.073848 0.113699 0
0.063239 0.112615 0
0.051879 0.107410 0
0.040372 0.098854 0
0.029149 0.087548 0
0.018358 0.073761 0
0.007732 0.057599 0
-0.002970 0.040751 0
-0.011809 0.026686 0
-0.018044 0.016756 0
-0.022189 0.009754 0
-0.024780 0.004449 0
-0.026157 0.000056 0
-0.026542 -0.003827 0
-0.026113 -0.007409 0
-0.024961 -0.010758 0
-0.023171 -0.013824 0
-0.020837 -0.016517 0
-0.018071 -0.018721 0
-0.015001 -0.020295 0
-0.011767 -0.021063 0
-0.008527 -0.020796 0
-0.005462 -0.019170 0
-0.002798 -0.015699 0
-0.000839 -0.009641 0
0.000000 -0.000000 0
0.000000 -0.000008 0
-0.004582 0.086445 0
-0.017397 0.096250 0
-0.033119 0.065850 0
-0.045918 0.028863 0
-0.054734 -0.003059 0
-0.060618 -0.030397 0
-0.064636 -0.055129 0
-0.067095 -0.078055 0
-0.068032 -0.098896 0
-0.067342 -0.117015 0
-0.064809 -0.131512 0
-0.060150 -0.141292 0
-0.053079 -0.145165 0
-0.043363 -0.142069 0
-0.031000 -0.131188 0
-0.015712 -0.112323 0
0.001400 -0.085017 0
0.019387 -0.051179 0
0.036589 -0.013316 0
0.050792 0.024832 0
0.059033 0.057809 0
0.063867 0.083831 0
0.065595 0.102866 0
0.064465 0.115114 0
0.060870 0.121055 0
0.055283 0.121407 0
0.048271 0.117010 0
0.040380 0.108743 0
0.032046 0.097403 0
0.023509 0.083566 0
0.014689 0.067638 0
0.005294 0.050554 0
-0.003851 0.034720 0
-0.011074 0.022378 0
-0.016022 0.013452 0
-0.019241 0.006678 0
-0.021088 0.001120 0
-0.021836 -0.003706 0
-0.021694 -0.008081 0
-0.020795 -0.012122 0
-0.019250 -0.015780 0
-0.017180 -0.018950 0
-0.014722 -0.021501 0
-0.012025 -0.023279 0
-0.009245 -0.024099 0
-0.006535 -0.023719 0
-0.004055 -0.021788 0
-0.001987 -0.017772 0
-0.000554 -0.010865 0
0.000000 0.000001 0
0.000000 -0.000008 0
-0.002587 0.094046 0
-0.012791 0.109885 0
-0.027974 0.080280 0
-0.041598 0.040119 0
-0.051304 0.004784 0
-0.058163 -0.024818 0
-0.063445 -0.051020 0
-0.067744 -0.075165 0
-0.071214 -0.097221 0
-0.073823 -0.116703 0
-0.075380 -0.132841 0
-0.075541 -0.144637 0
-0.073834 -0.150924 0
-0.069736 -0.150514 0
-0.062852 -0.142356 0
-0.052989 -0.125859 0
-0.040472 -0.100957 0
-0.025087 -0.068815 0
-0.008585 -0.030364 0
0.007955 0.011926 0
0.020909 0.049417 0
0.030925 0.078043 0
0.038047 0.099740 0
0.042586 0.114580 0
0.044695 0.122881 0
0.044479 0.125214 0
0.042287 0.122313 0
0.038533 0.115078 0
0.033608 0.104418 0
0.027802 0.091118 0
0.021192 0.075814 0
0.013684 0.059291 0
0.005525 0.043053 0
-0.002028 0.028927 0
-0.007865 0.017921 0
-0.011832 0.009515 0
-0.014264 0.002651 0
-0.015493 -0.003220 0
-0.015725 -0.008450 0
-0.015163 -0.013203 0
-0.013963 -0.017439 0
-0.012278 -0.021045 0
-0.010270 -0.023876 0
-0.008111 -0.025772 0
-0.005967 -0.026553 0
-0.003984 -0.025986 0
-0.002285 -0.023718 0
-0.000989 -0.019201 0
-0.000213 -0.011628 0
0.000000 0.000002 0
0.000000 -0.000008 0
-0.000850 0.099236 0
-0.007937 0.121637 0
-0.021876 0.094657 0
-0.036166 0.052193 0
-0.046809 0.013507 0
-0.054527 -0.018256 0
-0.060737 -0.045548 0
-0.066497 -0.070285 0
-0.072100 -0.092817 0
-0.077606 -0.112849 0
-0.082894 -0.129795 0
-0.087639 -0.142839 0
-0.091303 -0.150971 0
-0.093162 -0.153051 0
-0.092412 -0.147936 0
-0.088316 -0.134704 0
-0.080489 -0.112919 0
-0.068911 -0.083066 0
-0.054583 -0.046359 0
-0.037732 -0.004664 0
-0.019684 0.034838 0
-0.004663 0.066692 0
0.008108 0.091204 0
0.018528 0.108465 0
0.026202 0.119162 0
0.031269 0.123815 0
0.034021 0.122955 0
0.034686 0.117421 0
0.033549 0.108133 0
0.030893 0.095982 0
0.026890 0.081756 0
0.021603 0.066221 0
0.015221 0.050432 0
0.008480 0.035767 0
0.002394 0.023255 0
-0.002226 0.013076 0
-0.005391 0.004781 0
-0.007278 -0.002245 0
-0.008019 -0.008412 0
-0.007942 -0.013884 0
-0.007252 -0.018665 0
-0.006131 -0.022644 0
-0.004767 -0.025669 0
-0.003350 -0.027582 0
-0.002048 -0.028226 0
-0.000988 -0.027401 0
-0.000249 -0.024783 0
0.000131 -0.019844 0
0.000161 -0.011854 0
0.000000 0.000004 0
0.000000 -0.000008 0
0.000522 0.101982 0
-0.003217 0.130911 0
-0.015102 0.108509 0
-0.029797 0.065052 0
-0.041549 0.023145 0
-0.050064 -0.010889 0
-0.056991 -0.039050 0
-0.063892 -0.063802 0
-0.071240 -0.086112 0
-0.079188 -0.105909 0
-0.087690 -0.122809 0
-0.096490 -0.136228 0
-0.105070 -0.145402 0
-0.112643 -0.149405 0
-0.118173 -0.147203 0
-0.120478 -0.137783 0
-0.118429 -0.120362 0
-0.111217 -0.094723 0
-0.098785 -0.061543 0
-0.081597 -0.022974 0
-0.060572 0.016347 0
-0.041321 0.050249 0
-0.023499 0.076548 0
-0.007585 0.096486 0
0.005659 0.110139 0
0.016139 0.117394 0
0.023728 0.118895 0
0.028840 0.115550 0
0.031678 0.108212 0
0.032476 0.097777 0
0.031429 0.085103 0
0.028694 0.070959 0
0.024479 0.056175 0
0.019295 0.041754 0
0.013975 0.028628 0
0.009272 0.017300 0
0.005596 0.007703 0
0.003042 -0.000592 0
0.001565 -0.007787 0
0.000912 -0.013970 0
0.000852 -0.019250 0
0.001166 -0.023530 0
0.001643 -0.026657 0
0.002086 -0.028491 0
0.002337 -0.028914 0
0.002300 -0.027785 0
0.001945 -0.024838 0
0.001315 -0.019610 0
0.000546 -0.011497 0
0.000000 0.000006 0
0.000000 -0.000008 0
0.001598 0.102453 0
0.000964 0.137261 0
-0.008002 0.121237 0
-0.022580 0.078640 0
-0.035596 0.033773 0
-0.044987 -0.002814 0
-0.052596 -0.031720 0
-0.060393 -0.056036 0
-0.069144 -0.077521 0
-0.079091 -0.096399 0
-0.090242 -0.112493 0
-0.102396 -0.125460 0
-0.115103 -0.134818 0
-0.127616 -0.139948 0
-0.138867 -0.140102 0
-0.147475 -0.134448 0
-0.151841 -0.122181 0
-0.150348 -0.102712 0
-0.141740 -0.075980 0
-0.125564 -0.042877 0
-0.102937 -0.005438 0
-0.077694 0.029619 0
-0.055492 0.057467 0
-0.035146 0.079307 0
-0.016861 0.095438 0
-0.001139 0.105746 0
0.011535 0.110255 0
0.021073 0.109472 0
0.027908 0.104496 0
0.032325 0.096230 0
0.034493 0.085538 0
0.034595 0.073171 0
0.032856 0.059831 0
0.029684 0.046272 0
0.025729 0.033278 0
0.021671 0.021455 0
0.018037 0.011012 0
0.015061 0.001786 0
0.012766 -0.006282 0
0.011191 -0.013170 0
0.010145 -0.018918 0
0.009399 -0.023435 0
0.008736 -0.026588 0
0.007974 -0.028276 0
0.006986 -0.028440 0
0.005714 -0.027009 0
0.004180 -0.023799 0
0.002496 -0.018445 0
0.000916 -0.010539 0
0.000000 0.000008 0
0.000000 -0.000009 0
0.002444 0.101018 0
0.004306 0.140510 0
-0.000988 0.132053 0
-0.014624 0.092647 0
-0.028909 0.045552 0
-0.039513 0.006111 0
-0.047889 -0.023644 0
-0.056370 -0.047254 0
-0.066223 -0.067414 0
-0.077776 -0.084812 0
-0.091040 -0.099504 0
-0.105823 -0.111367 0
-0.121715 -0.120183 0
-0.138053 -0.125642 0
-0.153874 -0.127345 0
-0.167871 -0.124810 0
-0.178395 -0.117490 0
-0.183533 -0.104823 0
-0.181335 -0.086328 0
-0.170230 -0.061778 0
-0.149706 -0.031523 0
-0.120881 0.002805 0
-0.090546 0.034000 0
-0.064248 0.057854 0
-0.040983 0.076132 0
-0.020577 0.088999 0
-0.002955 0.096683 0
0.011332 0.099177 0
0.022184 0.096960 0
0.030284 0.091192 0
0.035816 0.082833 0
0.038962 0.072597 0
0.039922 0.061086 0
0.039058 0.048881 0
0.036902 0.036641 0
0.034014 0.024992 0
0.030880 0.014313 0
0.027804 0.004679 0
0.024891 -0.003917 0
0.022394 -0.011349 0
0.020221 -0.017457 0
0.018211 -0.022121 0
0.016190 -0.025233 0
0.014026 -0.026741 0
0.011647 -0.026654 0
0.009049 -0.024979 0
0.006303 -0.021620 0
0.003582 -0.016346 0
0.001237 -0.009001 0
0.000000 0.000010 0
0.000000 -0.000009 0
0.003065 0.098146 0
0.006797 0.140693 0
0.005196 0.140167 0
-0.006091 0.106560 0
-0.021443 0.058662 0
-0.033689 0.016166 0
-0.043030 -0.014864 0
-0.052045 -0.037703 0
-0.062748 -0.056115 0
-0.075581 -0.071581 0
-0.090500 -0.084447 0
-0.107255 -0.094786 0
-0.125428 -0.102588 0
-0.144414 -0.107789 0
-0.163392 -0.110285 0
-0.181283 -0.109928 0
-0.196716 -0.106519 0
-0.208032 -0.099773 0
-0.213331 -0.089283 0
-0.210628 -0.074506 0
-0.198147 -0.054787 0
-0.174848 -0.029542 0
-0.141430 0.000834 0
-0.105061 0.029744 0
-0.071701 0.051767 0
-0.043873 0.067719 0
-0.020478 0.078346 0
-0.001015 0.084332 0
0.014407 0.085544 0
0.026239 0.082597 0
0.035187 0.076859 0
0.041488 0.069066 0
0.045269 0.059736 0
0.046882 0.049292 0
0.046813 0.038322 0
0.045466 0.027478 0
0.043212 0.017222 0
0.040372 0.007774 0
0.037163 -0.000872 0
0.033812 -0.008500 0
0.030452 -0.014735 0
0.027047 -0.019404 0
0.023515 -0.022404 0
0.019817 -0.023732 0
0.015971 -0.023462 0
0.012039 -0.021666 0
0.008137 -0.018332 0
0.004476 -0.013379 0
0.001482 -0.006957 0
0.000000 0.000011 0
0.000000 -0.000009 0
0.003490 0.094220 0
0.008559 0.138380 0
0.009931 0.144940 0
0.002458 0.119285 0
-0.013118 0.073150 0
-0.027326 0.027699 0
-0.037875 -0.005287 0
-0.047492 -0.027537 0
-0.058866 -0.043879 0
-0.072705 -0.057061 0
-0.088896 -0.067831 0
-0.107081 -0.076440 0
-0.126781 -0.083024 0
-0.147407 -0.087678 0
-0.168249 -0.090477 0
-0.188464 -0.091486 0
-0.207059 -0.090741 0
-0.222870 -0.088209 0
-0.234545 -0.083732 0
-0.240525 -0.076962 0
-0.239039 -0.067303 0
-0.228155 -0.053912 0
-0.205968 -0.035787 0
-0.171599 -0.011875 0
-0.130615 0.014945 0
-0.088647 0.037776 0
-0.051435 0.053825 0
-0.021485 0.064291 0
0.001839 0.069706 0
0.019454 0.070412 0
0.032310 0.067584 0
0.041896 0.062514 0
0.048491 0.055692 0
0.052604 0.047337 0
0.054785 0.038057 0
0.055193 0.028593 0
0.054032 0.019406 0
0.051627 0.010728 0
0.048322 0.002643 0
0.044284 -0.004639 0
0.039819 -0.010692 0
0.035022 -0.015184 0
0.029959 -0.018004 0
0.024741 -0.019197 0
0.019497 -0.018876 0
0.014364 -0.017145 0
0.009485 -0.014058 0
0.005088 -0.009691 0
0.001629 -0.004525 0
0.000000 0.000012 0
0.000000 -0.000009 0
0.003741 0.089587 0
0.009684 0.134251 0
0.013236 0.146267 0
0.009730 0.129610 0
-0.003861 0.088447 0
-0.020136 0.040922 0
-0.032237 0.005302 0
-0.042738 -0.016712 0
-0.054641 -0.030902 0
-0.069239 -0.041552 0
-0.086373 -0.050072 0
-0.105543 -0.056902 0
-0.126186 -0.062263 0
-0.147701 -0.066322 0
-0.169454 -0.069228 0
-0.190778 -0.071119 0
-0.210980 -0.072114 0
-0.229330 -0.072287 0
-0.245030 -0.071628 0
-0.257174 -0.070011 0
-0.264667 -0.067158 0
-0.266131 -0.062613 0
-0.259833 -0.055721 0
-0.243694 -0.045609 0
-0.215332 -0.031185 0
-0.176056 -0.011461 0
-0.130938 0.011184 0
-0.084745 0.031058 0
-0.042267 0.044606 0
-0.007567 0.052126 0
0.018047 0.054418 0
0.035517 0.052886 0
0.046707 0.049029 0
0.054006 0.042998 0
0.058895 0.035733 0
0.061264 0.028231 0
0.061259 0.020788 0
0.059339 0.013484 0
0.056044 0.006470 0
0.051726 0.000002 0
0.046499 -0.005472 0
0.040585 -0.009544 0
0.034268 -0.012123 0
0.027839 -0.013271 0
0.021544 -0.013085 0
0.015573 -0.011654 0
0.010088 -0.009057 0
0.005304 -0.005523 0
0.001654 -0.001869 0
0.000000 0.000012 0
0.000000 -0.000009 0
0.003846 0.084536 0
0.010283 0.128885 0
0.015327 0.144893 0
0.014984 0.136381 0
0.005340 0.103016 0
-0.011918 0.056075 0
-0.026055 0.017314 0
-0.037547 -0.005133 0
-0.049998 -0.017378 0
-0.065154 -0.025330 0
-0.082945 -0.031527 0
-0.102735 -0.036627 0
-0.123873 -0.040866 0
-0.145755 -0.044410 0
-0.167805 -0.047401 0
-0.189481 -0.049960 0
-0.210287 -0.052189 0
-0.229763 -0.054159 0
-0.247452 -0.055887 0
-0.262880 -0.057325 0
-0.275509 -0.058346 0
-0.284671 -0.058745 0
-0.289501 -0.058223 0
-0.288856 -0.056375 0
-0.281223 -0.052693 0
-0.264635 -0.046618 0
-0.236888 -0.037487 0
-0.198747 -0.024380 0
-0.154062 -0.007472 0
-0.107289 0.010099 0
-0.062314 0.024500 0
-0.023125 0.033854 0
0.008350 0.037204 0
0.030838 0.035150 0
0.044947 0.030799 0
0.052876 0.026229 0
0.056234 0.021332 0
0.056377 0.015944 0
0.054347 0.010256 0
0.050935 0.004906 0
0.046165 0.000449 0
0.040338 -0.002953 0
0.033907 -0.005258 0
0.027300 -0.006473 0
0.020867 -0.006610 0
0.014864 -0.005689 0
0.009473 -0.003788 0
0.004892 -0.001257 0
0.001507 0.000779 0
0.000000 0.000011 0
0.000000 -0.000009 0
0.003830 0.079303 0
0.010456 0.122769 0
0.016413 0.141565 0
0.018385 0.139596 0
0.012691 0.115348 0
-0.002786 0.072318 0
-0.019272 0.030931 0
-0.031775 0.007231 0
-0.044644 -0.003295 0
-0.060224 -0.008605 0
-0.078448 -0.012491 0
-0.098555 -0.015974 0
-0.119845 -0.019243 0
-0.141727 -0.022390 0
-0.163693 -0.025501 0
-0.185308 -0.028636 0
-0.206194 -0.031832 0
-0.226050 -0.035122 0
-0.244579 -0.038510 0
-0.261502 -0.041953 0
-0.276532 -0.045367 0
-0.289339 -0.048621 0
-0.299510 -0.051536 0
-0.306538 -0.053886 0
-0.309785 -0.055406 0
-0.308460 -0.055796 0
-0.301635 -0.054703 0