# vtk DataFile Version 2.0
generated by CFD-lab course output (written by Tobias Neckel) 
ASCII

DATASET STRUCTURED_GRID
DIMENSIONS  51 51 1 
POINTS 2601 float

0.000000 0.000000 0
0.020000 0.000000 0
0.040000 0.000000 0
0.060000 0.000000 0
0.080000 0.000000 0
0.100000 0.000000 0
0.120000 0.000000 0
0.140000 0.000000 0
0.160000 0.000000 0
0.180000 0.000000 0
0.200000 0.000000 0
0.220000 0.000000 0
0.240000 0.000000 0
0.260000 0.000000 0
0.280000 0.000000 0
0.300000 0.000000 0
0.320000 0.000000 0
0.340000 0.000000 0
0.360000 0.000000 0
0.380000 0.000000 0
0.400000 0.000000 0
0.420000 0.000000 0
0.440000 0.000000 0
0.460000 0.000000 0
0.480000 0.000000 0
0.500000 0.000000 0
0.520000 0.000000 0
0.540000 0.000000 0
0.560000 0.000000 0
0.580000 0.000000 0
0.600000 0.000000 0
0.620000 0.000000 0
0.640000 0.000000 0
0.660000 0.000000 0
0.680000 0.000000 0
0.700000 0.000000 0
0.720000 0.000000 0
0.740000 0.000000 0
0.760000 0.000000 0
0.780000 0.000000 0
0.800000 0.000000 0
0.820000 0.000000 0
0.840000 0.000000 0
0.860000 0.000000 0
0.880000 0.000000 0
0.900000 0.000000 0
0.920000 0.000000 0
0.940000 0.000000 0
0.960000 0.000000 0
0.980000 0.000000 0
1.000000 0.000000 0
0.000000 0.020000 0
0.020000 0.020000 0
0.040000 0.020000 0
0.060000 0.020000 0
0.080000 0.020000 0
0.100000 0.020000 0
0.120000 0.020000 0
0.140000 0.020000 0
0.160000 0.020000 0
0.180000 0.020000 0
0.200000 0.020000 0
0.220000 0.020000 0
0.240000 0.020000 0
0.260000 0.020000 0
0.280000 0.020000 0
0.300000 0.020000 0
0.320000 0.020000 0
0.340000 0.020000 0
0.360000 0.020000 0
0.380000 0.020000 0
0.400000 0.020000 0
0.420000 0.020000 0
0.440000 0.020000 0
0.460000 0.020000 0
0.480000 0.020000 0
0.500000 0.020000 0
0.520000 0.020000 0
0.540000 0.020000 0
0.560000 0.020000 0
0.580000 0.020000 0
0.600000 0.020000 0
0.620000 0.020000 0
0.640000 0.020000 0
0.660000 0.020000 0
0.680000 0.020000 0
0.700000 0.020000 0
0.720000 0.020000 0
0.740000 0.020000 0
0.760000 0.020000 0
0.780000 0.020000 0
0.800000 0.020000 0
0.820000 0.020000 0
0.840000 0.020000 0
0.860000 0.020000 0
0.880000 0.020000 0
0.900000 0.020000 0
0.920000 0.020000 0
0.940000 0.020000 0
0.960000 0.020000 0
0.980000 0.020000 0
1.000000 0.020000 0
0.000000 0.040000 0
0.020000 0.040000 0
0.040000 0.040000 0
0.060000 0.040000 0
0.080000 0.040000 0
0.100000 0.040000 0
0.120000 0.040000 0
0.140000 0.040000 0
0.160000 0.040000 0
0.180000 0.040000 0
0.200000 0.040000 0
0.220000 0.040000 0
0.240000 0.040000 0
0.260000 0.040000 0
0.280000 0.040000 0
0.300000 0.040000 0
0.320000 0.040000 0
0.340000 0.040000 0
0.360000 0.040000 0
0.380000 0.040000 0
0.400000 0.040000 0
0.420000 0.040000 0
0.440000 0.040000 0
0.460000 0.040000 0
0.480000 0.040000 0
0.500000 0.040000 0
0.520000 0.040000 0
0.540000 0.040000 0
0.560000 0.040000 0
0.580000 0.040000 0
0.600000 0.040000 0
0.620000 0.040000 0
0.640000 0.040000 0
0.660000 0.040000 0
0.680000 0.040000 0
0.700000 0.040000 0
0.720000 0.040000 0
0.740000 0.040000 0
0.760000 0.040000 0
0.780000 0.040000 0
0.800000 0.040000 0
0.820000 0.040000 0
0.840000 0.040000 0
0.860000 0.040000 0
0.880000 0.040000 0
0.900000 0.040000 0
0.920000 0.040000 0
0.940000 0.040000 0
0.960000 0.040000 0
0.980000 0.040000 0
1.000000 0.040000 0
0.000000 0.060000 0
0.020000 0.060000 0
0.040000 0.060000 0
0.060000 0.060000 0
0.080000 0.060000 0
0.100000 0.060000 0
0.120000 0.060000 0
0.140000 0.060000 0
0.160000 0.060000 0
0.180000 0.060000 0
0.200000 0.060000 0
0.220000 0.060000 0
0.240000 0.060000 0
0.260000 0.060000 0
0.280000 0.060000 0
0.300000 0.060000 0
0.320000 0.060000 0
0.340000 0.060000 0
0.360000 0.060000 0
0.380000 0.060000 0
0.400000 0.060000 0
0.420000 0.060000 0
0.440000 0.060000 0
0.460000 0.060000 0
0.480000 0.060000 0
0.500000 0.060000 0
0.520000 0.060000 0
0.540000 0.060000 0
0.560000 0.060000 0
0.580000 0.060000 0
0.600000 0.060000 0
0.620000 0.060000 0
0.640000 0.060000 0
0.660000 0.060000 0
0.680000 0.060000 0
0.700000 0.060000 0
0.720000 0.060000 0
0.740000 0.060000 0
0.760000 0.060000 0
0.780000 0.060000 0
0.800000 0.060000 0
0.820000 0.060000 0
0.840000 0.060000 0
0.860000 0.060000 0
0.880000 0.060000 0
0.900000 0.060000 0
0.920000 0.060000 0
0.940000 0.060000 0
0.960000 0.060000 0
0.980000 0.060000 0
1.000000 0.060000 0
0.000000 0.080000 0
0.020000 0.080000 0
0.040000 0.080000 0
0.060000 0.080000 0
0.080000 0.080000 0
0.100000 0.080000 0
0.120000 0.080000 0
0.140000 0.080000 0
0.160000 0.080000 0
0.180000 0.080000 0
0.200000 0.080000 0
0.220000 0.080000 0
0.240000 0.080000 0
0.260000 0.080000 0
0.280000 0.080000 0
0.300000 0.080000 0
0.320000 0.080000 0
0.340000 0.080000 0
0.360000 0.080000 0
0.380000 0.080000 0
0.400000 0.080000 0
0.420000 0.080000 0
0.440000 0.080000 0
0.460000 0.080000 0
0.480000 0.080000 0
0.500000 0.080000 0
0.520000 0.080000 0
0.540000 0.080000 0
0.560000 0.080000 0
0.580000 0.080000 0
0.600000 0.080000 0
0.620000 0.080000 0
0.640000 0.080000 0
0.660000 0.080000 0
0.680000 0.080000 0
0.700000 0.080000 0
0.720000 0.080000 0
0.740000 0.080000 0
0.760000 0.080000 0
0.780000 0.080000 0
0.800000 0.080000 0
0.820000 0.080000 0
0.840000 0.080000 0
0.860000 0.080000 0
0.880000 0.080000 0
0.900000 0.080000 0
0.920000 0.080000 0
0.940000 0.080000 0
0.960000 0.080000 0
0.980000 0.080000 0
1.000000 0.080000 0
0.000000 0.100000 0
0.020000 0.100000 0
0.040000 0.100000 0
0.060000 0.100000 0
0.080000 0.100000 0
0.100000 0.100000 0
0.120000 0.100000 0
0.140000 0.100000 0
0.160000 0.100000 0
0.180000 0.100000 0
0.200000 0.100000 0
0.220000 0.100000 0
0.240000 0.100000 0
0.260000 0.100000 0
0.280000 0.100000 0
0.300000 0.100000 0
0.320000 0.100000 0
0.340000 0.100000 0
0.360000 0.100000 0
0.380000 0.100000 0
0.400000 0.100000 0
0.420000 0.100000 0
0.440000 0.100000 0
0.460000 0.100000 0
0.480000 0.100000 0
0.500000 0.100000 0
0.520000 0.100000 0
0.540000 0.100000 0
0.560000 0.100000 0
0.580000 0.100000 0
0.600000 0.100000 0
0.620000 0.100000 0
0.640000 0.100000 0
0.660000 0.100000 0
0.680000 0.100000 0
0.700000 0.100000 0
0.720000 0.100000 0
0.740000 0.100000 0
0.760000 0.100000 0
0.780000 0.100000 0
0.800000 0.100000 0
0.820000 0.100000 0
0.840000 0.100000 0
0.860000 0.100000 0
0.880000 0.100000 0
0.900000 0.100000 0
0.920000 0.100000 0
0.940000 0.100000 0
0.960000 0.100000 0
0.980000 0.100000 0
1.000000 0.100000 0
0.000000 0.120000 0
0.020000 0.120000 0
0.040000 0.120000 0
0.060000 0.120000 0
0.080000 0.120000 0
0.100000 0.120000 0
0.120000 0.120000 0
0.140000 0.120000 0
0.160000 0.120000 0
0.180000 0.120000 0
0.200000 0.120000 0
0.220000 0.120000 0
0.240000 0.120000 0
0.260000 0.120000 0
0.280000 0.120000 0
0.300000 0.120000 0
0.320000 0.120000 0
0.340000 0.120000 0
0.360000 0.120000 0
0.380000 0.120000 0
0.400000 0.120000 0
0.420000 0.120000 0
0.440000 0.120000 0
0.460000 0.120000 0
0.480000 0.120000 0
0.500000 0.120000 0
0.520000 0.120000 0
0.540000 0.120000 0
0.560000 0.120000 0
0.580000 0.120000 0
0.600000 0.120000 0
0.620000 0.120000 0
0.640000 0.120000 0
0.660000 0.120000 0
0.680000 0.120000 0
0.700000 0.120000 0
0.720000 0.120000 0
0.740000 0.120000 0
0.760000 0.120000 0
0.780000 0.120000 0
0.800000 0.120000 0
0.820000 0.120000 0
0.840000 0.120000 0
0.860000 0.120000 0
0.880000 0.120000 0
0.900000 0.120000 0
0.920000 0.120000 0
0.940000 0.120000 0
0.960000 0.120000 0
0.980000 0.120000 0
1.000000 0.120000 0
0.000000 0.140000 0
0.020000 0.140000 0
0.040000 0.140000 0
0.060000 0.140000 0
0.080000 0.140000 0
0.100000 0.140000 0
0.120000 0.140000 0
0.140000 0.140000 0
0.160000 0.140000 0
0.180000 0.140000 0
0.200000 0.140000 0
0.220000 0.140000 0
0.240000 0.140000 0
0.260000 0.140000 0
0.280000 0.140000 0
0.300000 0.140000 0
0.320000 0.140000 0
0.340000 0.140000 0
0.360000 0.140000 0
0.380000 0.140000 0
0.400000 0.140000 0
0.420000 0.140000 0
0.440000 0.140000 0
0.460000 0.140000 0
0.480000 0.140000 0
0.500000 0.140000 0
0.520000 0.140000 0
0.540000 0.140000 0
0.560000 0.140000 0
0.580000 0.140000 0
0.600000 0.140000 0
0.620000 0.140000 0
0.640000 0.140000 0
0.660000 0.140000 0
0.680000 0.140000 0
0.700000 0.140000 0
0.720000 0.140000 0
0.740000 0.140000 0
0.760000 0.140000 0
0.780000 0.140000 0
0.800000 0.140000 0
0.820000 0.140000 0
0.840000 0.140000 0
0.860000 0.140000 0
0.880000 0.140000 0
0.900000 0.140000 0
0.920000 0.140000 0
0.940000 0.140000 0
0.960000 0.140000 0
0.980000 0.140000 0
1.000000 0.140000 0
0.000000 0.160000 0
0.020000 0.160000 0
0.040000 0.160000 0
0.060000 0.160000 0
0.080000 0.160000 0
0.100000 0.160000 0
0.120000 0.160000 0
0.140000 0.160000 0
0.160000 0.160000 0
0.180000 0.160000 0
0.200000 0.160000 0
0.220000 0.160000 0
0.240000 0.160000 0
0.260000 0.160000 0
0.280000 0.160000 0
0.300000 0.160000 0
0.320000 0.160000 0
0.340000 0.160000 0
0.360000 0.160000 0
0.380000 0.160000 0
0.400000 0.160000 0
0.420000 0.160000 0
0.440000 0.160000 0
0.460000 0.160000 0
0.480000 0.160000 0
0.500000 0.160000 0
0.520000 0.160000 0
0.540000 0.160000 0
0.560000 0.160000 0
0.580000 0.160000 0
0.600000 0.160000 0
0.620000 0.160000 0
0.640000 0.160000 0
0.660000 0.160000 0
0.680000 0.160000 0
0.700000 0.160000 0
0.720000 0.160000 0
0.740000 0.160000 0
0.760000 0.160000 0
0.780000 0.160000 0
0.800000 0.160000 0
0.820000 0.160000 0
0.840000 0.160000 0
0.860000 0.160000 0
0.880000 0.160000 0
0.900000 0.160000 0
0.920000 0.160000 0
0.940000 0.160000 0
0.960000 0.160000 0
0.980000 0.160000 0
1.000000 0.160000 0
0.000000 0.180000 0
0.020000 0.180000 0
0.040000 0.180000 0
0.060000 0.180000 0
0.080000 0.180000 0
0.100000 0.180000 0
0.120000 0.180000 0
0.140000 0.180000 0
0.160000 0.180000 0
0.180000 0.180000 0
0.200000 0.180000 0
0.220000 0.180000 0
0.240000 0.180000 0
0.260000 0.180000 0
0.280000 0.180000 0
0.300000 0.180000 0
0.320000 0.180000 0
0.340000 0.180000 0
0.360000 0.180000 0
0.380000 0.180000 0
0.400000 0.180000 0
0.420000 0.180000 0
0.440000 0.180000 0
0.460000 0.180000 0
0.480000 0.180000 0
0.500000 0.180000 0
0.520000 0.180000 0
0.540000 0.180000 0
0.560000 0.180000 0
0.580000 0.180000 0
0.600000 0.180000 0
0.620000 0.180000 0
[...]
POINT_DATA 2601 

VECTORS velocity float
0.000000 0.000000 0
0.000000 0.000000 0
-0.000001 0.000000 0
-0.000003 0.000000 0
-0.000006 0.000000 0
-0.000009 0.000000 0
-0.000014 0.000000 0
-0.000020 0.000000 0
-0.000027 0.000000 0
-0.000033 0.000000 0
-0.000035 0.000000 0
-0.000036 0.000000 0
-0.000031 0.000000 0
-0.000022 0.000000 0
-0.000011 0.000000 0
0.000000 0.000000 0
0.000008 0.000000 0
0.000013 0.000000 0
0.000015 0.000000 0
0.000016 0.000000 0
0.000015 0.000000 0
0.000013 0.000000 0
0.000011 0.000000 0
0.000009 0.000000 0
0.000007 0.000000 0
0.000005 0.000000 0
0.000003 0.000000 0
0.000002 0.000000 0
0.000001 0.000000 0
0.000001 0.000000 0
0.000000 0.000000 0
0.000000 0.000000 0
0.000000 0.000000 0
0.000000 0.000000 0
0.000000 0.000000 0
0.000001 0.000000 0
0.000001 0.000000 0
0.000001 0.000000 0
0.000001 0.000000 0
0.000001 0.000000 0
0.000001 0.000000 0
0.000001 0.000000 0
0.000001 0.000000 0
0.000001 0.000000 0
0.000001 0.000000 0
0.000001 0.000000 0
0.000001 0.000000 0
0.000000 0.000000 0
0.000000 0.000000 0
0.000000 0.000000 0
0.000000 0.000000 0
0.000000 -0.000000 0
-0.010011 0.008953 0
-0.025549 0.009771 0
-0.037171 0.006065 0
-0.043961 0.002372 0
-0.046410 -0.001059 0
-0.044525 -0.004927 0
-0.037927 -0.009530 0
-0.026214 -0.014686 0
-0.009229 -0.019274 0
0.012726 -0.022238 0
0.038766 -0.023360 0
0.066964 -0.021979 0
0.094864 -0.017807 0
0.119703 -0.011591 0
0.138557 -0.004630 0
0.149122 0.001491 0
0.150531 0.006083 0
0.144010 0.009472 0
0.131720 0.012061 0
0.115316 0.014011 0
0.096244 0.015259 0
0.075937 0.015607 0
0.055845 0.014872 0
0.037338 0.013032 0
0.021558 0.010309 0
0.009273 0.007151 0
0.000772 0.004101 0
-0.004176 0.001816 0
-0.006477 0.000549 0
-0.007346 -0.000019 0
-0.007521 -0.000222 0
-0.007390 -0.000272 0
-0.007123 -0.000276 0
-0.006781 -0.000279 0
-0.006374 -0.000296 0
-0.005901 -0.000324 0
-0.005359 -0.000356 0
-0.004757 -0.000385 0
-0.004111 -0.000404 0
-0.003444 -0.000408 0
-0.002783 -0.000396 0
-0.002158 -0.000367 0
-0.001593 -0.000324 0
-0.001108 -0.000271 0
-0.000714 -0.000213 0
-0.000414 -0.000155 0
-0.000204 -0.000100 0
-0.000074 -0.000051 0
-0.000011 -0.000011 0
0.000000 0.000000 0
0.000000 0.000000 0
-0.014709 0.025549 0
-0.035834 0.027160 0
-0.052492 0.018411 0
-0.063421 0.009238 0
-0.069044 0.000563 0
-0.069591 -0.008484 0
-0.065362 -0.018312 0
-0.056482 -0.028699 0
-0.043084 -0.038941 0
-0.024682 -0.047996 0
-0.001082 -0.054240 0
0.027452 -0.056100 0
0.060354 -0.052740 0
0.095258 -0.043694 0
0.128981 -0.029420 0
0.156742 -0.011974 0
0.173919 0.005111 0
0.177367 0.018810 0
0.168900 0.028694 0
0.151945 0.035476 0
0.129646 0.039378 0
0.104824 0.040399 0
0.079843 0.038599 0
0.056504 0.034287 0
0.036063 0.028064 0
0.019312 0.020786 0
0.006641 0.013449 0
-0.001987 0.007250 0
-0.006928 0.003170 0
-0.009382 0.001044 0
-0.010451 0.000045 0
-0.010775 -0.000398 0
-0.010684 -0.000610 0
-0.010337 -0.000749 0
-0.009802 -0.000880 0
-0.009105 -0.001014 0
-0.008269 -0.001143 0
-0.007322 -0.001248 0
-0.006301 -0.001314 0
-0.005251 -0.001328 0
-0.004221 -0.001286 0
-0.003256 -0.001190 0
-0.002395 -0.001050 0
-0.001664 -0.000879 0
-0.001077 -0.000694 0
-0.000636 -0.000510 0
-0.000330 -0.000340 0
-0.000137 -0.000192 0
-0.000034 -0.000073 0
0.000000 0.000000 0
0.000000 0.000001 0
-0.015647 0.044787 0
-0.038585 0.047554 0
-0.057335 0.033651 0
-0.070302 0.018923 0
-0.078173 0.005112 0
-0.081437 -0.008610 0
-0.080675 -0.022640 0
-0.076304 -0.036965 0
-0.068520 -0.051076 0
-0.057297 -0.064241 0
-0.042369 -0.075494 0
-0.022903 -0.083415 0
0.001803 -0.085614 0
0.031901 -0.080218 0
0.066596 -0.066114 0
0.102282 -0.043447 0
0.134285 -0.014542 0
0.155162 0.014491 0
0.159211 0.037482 0
0.150407 0.053265 0
0.133154 0.062380 0
0.111444 0.065410 0
0.088389 0.063191 0
0.066117 0.056811 0
0.045959 0.047502 0
0.028686 0.036573 0
0.014695 0.025399 0
0.004089 0.015384 0
-0.003153 0.007945 0
-0.007391 0.003504 0
-0.009616 0.001172 0
-0.010656 -0.000040 0
-0.010969 -0.000714 0
-0.010816 -0.001161 0
-0.010332 -0.001528 0
-0.009590 -0.001856 0
-0.008648 -0.002139 0
-0.007564 -0.002353 0
-0.006401 -0.002474 0
-0.005223 -0.002487 0
-0.004093 -0.002390 0
-0.003064 -0.002193 0
-0.002174 -0.001916 0
-0.001447 -0.001588 0
-0.000890 -0.001240 0
-0.000497 -0.000902 0
-0.000244 -0.000599 0
-0.000099 -0.000346 0
-0.000027 -0.000148 0
0.000000 0.000000 0
0.000000 0.000002 0
-0.014526 0.064133 0
-0.037354 0.068848 0
-0.056909 0.050129 0
-0.070870 0.030075 0
-0.080127 0.011698 0
-0.085482 -0.005982 0
-0.087466 -0.023446 0
-0.086650 -0.040855 0
-0.083239 -0.057948 0
-0.077276 -0.074148 0
-0.068660 -0.088636 0
-0.057131 -0.100272 0
-0.042143 -0.107544 0
-0.022381 -0.108487 0
0.002860 -0.099802 0
0.033861 -0.079664 0
0.068950 -0.047771 0
0.101346 -0.006116 0
0.121448 0.033450 0
0.124512 0.061532 0
0.116998 0.078341 0
0.103332 0.085165 0
0.086722 0.083926 0
0.069306 0.076716 0
0.052478 0.065495 0
0.037104 0.052050 0
0.023701 0.038047 0
0.012590 0.025098 0
0.003956 0.014649 0
-0.001975 0.007506 0
-0.005561 0.003310 0
-0.007482 0.000956 0
-0.008347 -0.000450 0
-0.008509 -0.001386 0
-0.008197 -0.002105 0
-0.007546 -0.002698 0
-0.006658 -0.003169 0
-0.005625 -0.003496 0
-0.004536 -0.003654 0
-0.003469 -0.003635 0
-0.002491 -0.003445 0
-0.001651 -0.003109 0
-0.000977 -0.002667 0
-0.000480 -0.002162 0
-0.000155 -0.001644 0
0.000019 -0.001157 0
0.000075 -0.000737 0
0.000058 -0.000409 0
0.000018 -0.000173 0
0.000000 0.000001 0
0.000000 0.000003 0
-0.012273 0.082140 0
-0.033806 0.089937 0
-0.053560 0.067167 0
-0.068133 0.042141 0
-0.078367 0.019723 0
-0.085282 -0.001271 0
-0.089449 -0.021472 0
-0.091493 -0.041193 0
-0.091703 -0.060450 0
-0.090195 -0.078820 0
-0.086942 -0.095639 0
-0.081746 -0.109933 0
-0.074208 -0.120364 0
-0.063705 -0.125222 0
-0.049352 -0.122357 0
-0.029133 -0.109537 0
-0.002574 -0.082028 0
0.029859 -0.038006 0
0.064440 0.014317 0
0.080978 0.057715 0
0.085820 0.083560 0
0.083390 0.095685 0
0.076428 0.097217 0
0.066667 0.091055 0
0.055489 0.079704 0
0.043917 0.065349 0
0.032681 0.049912 0
0.022363 0.035129 0
0.013463 0.022510 0
0.006447 0.013022 0
0.001566 0.006678 0
-0.001421 0.002746 0
-0.003037 0.000312 0
-0.003700 -0.001311 0
-0.003712 -0.002491 0
-0.003312 -0.003395 0
-0.002660 -0.004060 0
-0.001883 -0.004475 0
-0.001091 -0.004630 0
-0.000368 -0.004532 0
0.000229 -0.004209 0
0.000666 -0.003707 0
0.000931 -0.003087 0
0.001029 -0.002410 0
0.000977 -0.001739 0
0.000808 -0.001131 0
0.000564 -0.000638 0
0.000303 -0.000290 0
0.000091 -0.000090 0
0.000000 0.000001 0
0.000000 0.000004 0
-0.009482 0.097938 0
-0.028877 0.110134 0
-0.048454 0.084456 0
-0.063512 0.054882 0
-0.074510 0.028846 0
-0.082657 0.005099 0
-0.088644 -0.017236 0
-0.093011 -0.038601 0
-0.096227 -0.059246 0
-0.098496 -0.078909 0
-0.099902 -0.097085 0
-0.100364 -0.113007 0
-0.099577 -0.125586 0
-0.096950 -0.133343 0
-0.091593 -0.134374 0
-0.082260 -0.126442 0
-0.067716 -0.106762 0
-0.044275 -0.073130 0
-0.011228 -0.017668 0
0.024356 0.040152 0
0.044950 0.075928 0
0.054848 0.094557 0
0.058937 0.100650 0
0.058402 0.097654 0
0.054492 0.088244 0
0.048262 0.074858 0
0.040605 0.059601 0
0.032363 0.044316 0
0.024278 0.030565 0
0.017087 0.019403 0
0.011402 0.011179 0
0.007389 0.005560 0
0.004858 0.001829 0
0.003441 -0.000711 0
0.002833 -0.002493 0
0.002725 -0.003750 0
0.002887 -0.004598 0
0.003155 -0.005064 0
0.003409 -0.005170 0
0.003570 -0.004955 0
0.003596 -0.004479 0
0.003471 -0.003811 0
0.003200 -0.003029 0
0.002799 -0.002209 0
0.002295 -0.001424 0
0.001724 -0.000744 0
0.001132 -0.000232 0
0.000587 0.000064 0
0.000175 0.000130 0
0.000000 0.000001 0
0.000000 0.000005 0
-0.006580 0.111017 0
-0.023186 0.128910 0
-0.042229 0.101801 0
-0.057733 0.068196 0
-0.069405 0.038868 0
-0.078591 0.012864 0
-0.086134 -0.011118 0
-0.092426 -0.033611 0
-0.098144 -0.054966 0
-0.103571 -0.075146 0
-0.108882 -0.093771 0
-0.114123 -0.110258 0
-0.119146 -0.123779 0
-0.123524 -0.133206 0
-0.126431 -0.137047 0
-0.126539 -0.133415 0
-0.122020 -0.120013 0
-0.110215 -0.094494 0
-0.088659 -0.054314 0
-0.048374 0.001535 0
-0.007533 0.053068 0
0.019159 0.081700 0
0.036029 0.093662 0
0.045114 0.095499 0
0.049214 0.089844 0
0.049368 0.079237 0
0.046451 0.065812 0
0.041488 0.051456 0
0.035342 0.037785 0
0.028929 0.025897 0
0.023133 0.016376 0
0.018471 0.009291 0
0.015050 0.004262 0
0.012689 0.000714 0
0.011132 -0.001775 0
0.010166 -0.003449 0
0.009514 -0.004491 0
0.008985 -0.004997 0
0.008456 -0.005045 0
0.007860 -0.004719 0
0.007170 -0.004109 0
0.006382 -0.003311 0
0.005510 -0.002415 0
0.004577 -0.001505 0
0.003606 -0.000663 0
0.002630 0.000032 0
0.001694 0.000499 0
0.000869 0.000667 0
0.000258 0.000497 0
0.000000 0.000001 0
0.000000 0.000006 0
-0.003891 0.121123 0
-0.017198 0.145783 0
-0.035271 0.119004 0
-0.051192 0.082059 0
-0.063517 0.049704 0
-0.073602 0.021828 0
-0.082460 -0.003401 0
-0.090484 -0.026591 0
-0.098348 -0.048102 0
-0.106449 -0.068172 0
-0.115007 -0.086534 0
-0.124132 -0.102743 0
-0.133784 -0.116185 0
-0.143687 -0.126059 0
-0.153207 -0.131359 0
-0.161172 -0.130853 0
-0.165671 -0.123085 0
-0.163821 -0.106490 0
-0.151891 -0.079510 0
-0.124971 -0.040975 0
-0.079006 0.008395 0
-0.030537 0.050996 0
0.004506 0.074695 0
0.026938 0.084469 0
0.039784 0.083990 0
0.046858 0.077620 0
0.049414 0.067481 0
0.048717 0.055426 0
0.045515 0.043124 0
0.040818 0.031612 0
0.035727 0.021637 0
0.030953 0.013643 0
0.026840 0.007610 0
0.023476 0.003206 0
0.020763 0.000031 0
0.018572 -0.002132 0
0.016753 -0.003416 0
0.015136 -0.004006 0
0.013601 -0.004046 0
0.012091 -0.003670 0
0.010588 -0.003001 0
0.009090 -0.002151 0
0.007609 -0.001223 0
0.006159 -0.000304 0
0.004757 0.000523 0
0.003422 0.001169 0
0.002187 0.001530 0
0.001119 0.001500 0
0.000333 0.000999 0
0.000000 0.000001 0
0.000000 0.000007 0
-0.001642 0.128214 0
-0.011306 0.160290 0
-0.027859 0.135795 0
-0.044093 0.096443 0
-0.057069 0.061279 0
-0.067915 0.031806 0
-0.077908 0.005763 0
-0.087647 -0.017723 0
-0.097397 -0.039001 0
-0.107797 -0.058488 0
-0.119069 -0.076088 0
-0.131313 -0.091481 0
-0.144487 -0.104225 0
-0.158357 -0.113783 0
-0.172395 -0.119562 0
-0.185651 -0.120950 0
-0.196567 -0.117364 0
-0.202799 -0.108275 0
-0.201154 -0.093164 0
-0.187622 -0.071349 0
-0.157908 -0.041366 0
-0.109246 -0.001812 0
-0.055989 0.036187 0
-0.009686 0.060221 0
0.021337 0.069924 0
0.039193 0.069607 0
0.048518 0.063953 0
0.053079 0.055355 0
0.053598 0.045684 0
0.051364 0.035685 0
0.047767 0.026242 0
0.043468 0.018178 0
0.038953 0.011738 0
0.034638 0.006791 0
0.030735 0.003129 0
0.027206 0.000560 0
0.024008 -0.001054 0
0.021076 -0.001844 0
0.018372 -0.002001 0
0.015860 -0.001706 0
0.013513 -0.001108 0
0.011317 -0.000332 0
0.009272 0.000516 0
0.007375 0.001346 0
0.005624 0.002075 0
0.004017 0.002602 0
0.002567 0.002801 0
0.001322 0.002521 0
0.000399 0.001616 0
0.000000 0.000001 0
0.000000 0.000007 0
0.000017 0.132429 0
-0.005847 0.172000 0
-0.020243 0.151790 0
-0.036564 0.111268 0
-0.050213 0.073526 0
-0.061742 0.042667 0
-0.072737 0.016331 0
-0.084018 -0.007102 0
-0.095561 -0.027952 0
-0.107963 -0.046500 0
-0.121504 -0.063018 0
-0.136224 -0.077325 0
-0.152008 -0.089141 0
-0.168558 -0.098151 0
-0.185339 -0.104065 0
-0.201529 -0.106681 0
-0.215969 -0.105936 0
-0.227120 -0.101903 0
-0.233070 -0.094688 0
-0.231518 -0.084221 0
-0.219708 -0.069981 0
-0.193912 -0.050923 0
-0.150299 -0.024864 0
-0.096980 0.007143 0
-0.043299 0.035111 0
0.000919 0.050439 0
0.031062 0.053595 0
0.047702 0.050346 0
0.055052 0.044838 0
0.056959 0.037443 0
0.056175 0.029533 0
0.053180 0.022457 0
0.048744 0.016441 0
0.043815 0.011424 0
0.038954 0.007463 0
0.034308 0.004595 0
0.029877 0.002715 0
0.025732 0.001630 0
0.021949 0.001170 0
0.018532 0.001189 0
0.015450 0.001542 0
0.012683 0.002090 0
0.010213 0.002719 0
0.008017 0.003344 0
0.006064 0.003881 0
0.004325 0.004226 0
0.002783 0.004224 0
0.001460 0.003667 0
0.000456 0.002321 0
0.000000 0.000001 0
0.000000 0.000007 0
0.001196 0.134061 0
-0.001143 0.180549 0
-0.012700 0.166512 0
-0.028724 0.126413 0
-0.043070 0.086458 0
-0.055243 0.054330 0
-0.067010 0.028039 0
-0.079470 0.005101 0
-0.092897 -0.015057 0
-0.107071 -0.032544 0
-0.122478 -0.047827 0
-0.139102 -0.060977 0
-0.156744 -0.071890 0
-0.175021 -0.080452 0
-0.193358 -0.086590 0
-0.211001 -0.090321 0
-0.227052 -0.091774 0
-0.240533 -0.091173 0
-0.250447 -0.088765 0
-0.255779 -0.084712 0
-0.255382 -0.078973 0
-0.247722 -0.071220 0
-0.230697 -0.060745 0
-0.200762 -0.046779 0
-0.157096 -0.027975 0
-0.106509 -0.004755 0
-0.056900 0.017170 0
-0.015159 0.031365 0
0.016532 0.036426 0
0.036959 0.034563 0
0.046811 0.030021 0
0.049703 0.025609 0
0.048322 0.021104 0
0.044974 0.016581 0
0.040788 0.012636 0
0.036162 0.009637 0
0.031397 0.007522 0
0.026800 0.006084 0
0.022592 0.005200 0
0.018808 0.004793 0
0.015442 0.004740 0
0.012488 0.004906 0
0.009927 0.005183 0
0.007724 0.005495 0
0.005825 0.005766 0
0.004176 0.005883 0
0.002733 0.005667 0
0.001483 0.004848 0
0.000493 0.003076 0
0.000000 0.000001 0
0.000000 0.000008 0
0.002106 0.133571 0
0.002582 0.185896 0
-0.005564 0.179371 0
-0.020723 0.141638 0
-0.035726 0.100046 0
-0.048552 0.066606 0
-0.060879 0.040558 0
-0.074161 0.018785 0
-0.088990 -0.000352 0
-0.105009 -0.016920 0
-0.121959 -0.030987 0
-0.139990 -0.043058 0
-0.158855 -0.053221 0
-0.178149 -0.061537 0
-0.197305 -0.068086 0
-0.215657 -0.072988 0
-0.232498 -0.076404 0
-0.247145 -0.078507 0
-0.259008 -0.079442 0
-0.267615 -0.079287 0
-0.272570 -0.078038 0
-0.273454 -0.075608 0
-0.269669 -0.071824 0
-0.260214 -0.066459 0
-0.243832 -0.059142 0
-0.218261 -0.049756 0
-0.182705 -0.037755 0
-0.140757 -0.023087 0
-0.098048 -0.007279 0
-0.059320 0.007165 0
-0.028094 0.016789 0
-0.004532 0.020946 0
0.011422 0.021169 0
0.020177 0.018958 0
0.023542 0.016275 0
0.023574 0.013987 0
0.021833 0.012077 0
0.019311 0.010435 0
0.016634 0.009162 0
0.013985 0.008339 0
0.011496 0.007862 0
0.009267 0.007605 0
0.007341 0.007484 0
0.005716 0.007446 0
0.004349 0.007430 0
0.003185 0.007319 0
0.002171 0.006918 0
0.001262 0.005907 0
0.000470 0.003804 0
0.000000 0.000001 0
0.000000 0.000008 0
0.002785 0.131478 0
0.005325 0.188220 0
0.000793 0.189817 0
-0.012771 0.156575 0
-0.028267 0.114287 0
-0.041844 0.079483 0
-0.054682 0.053648 0
-0.068481 0.033212 0
-0.083946 0.015791 0
-0.101209 0.000424 0
-0.119634 -0.012846 0
-0.138791 -0.024081 0
-0.158398 -0.033730 0
-0.178191 -0.042002 0
-0.197679 -0.049082 0
-0.216344 -0.055127 0
-0.233660 -0.060286 0
-0.249131 -0.064663 0
-0.262331 -0.068295 0
-0.272914 -0.071149 0
-0.280614 -0.073133 0
-0.285225 -0.074122 0
-0.286574 -0.073984 0
-0.284477 -0.072615 0
-0.278712 -0.069928 0
-0.268868 -0.065882 0
-0.254688 -0.060334 0
-0.235244 -0.053292 0
-0.210144 -0.045010 0
-0.179858 -0.035392 0
-0.146435 -0.024767 0
-0.113608 -0.013907 0
-0.083768 -0.003605 0
-0.058759 0.004460 0
-0.039205 0.009238 0
-0.024670 0.011347 0
-0.014444 0.011786 0
-0.007802 0.011282 0
-0.003984 0.010526 0
-0.001873 0.009931 0
-0.000757 0.009458 0
-0.000177 0.009060 0
0.000134 0.008734 0
0.000325 0.008488 0
0.000460 0.008297 0
0.000553 0.008062 0
0.000588 0.007591 0
0.000519 0.006549 0
0.000290 0.004338 0
0.000000 0.000000 0
0.000000 0.000008 0
0.003248 0.128246 0
0.007248 0.187888 0
0.005920 0.197468 0
-0.005082 0.170698 0
-0.020762 0.129118 0
-0.035187 0.093021 0
-0.048586 0.067196 0
-0.062759 0.048049 0
-0.078528 0.032376 0
-0.096008 0.018768 0
-0.115038 0.006595 0
-0.134927 -0.004294 0
-0.155201 -0.013820 0
-0.175282 -0.022256 0
-0.194817 -0.029933 0
-0.213532 -0.037006 0
-0.231103 -0.043616 0
-0.247192 -0.049836 0
-0.261487 -0.055659 0
-0.273682 -0.061004 0
-0.283491 -0.065727 0
-0.290657 -0.069648 0
-0.294967 -0.072572 0
-0.296268 -0.074320 0
-0.294488 -0.074751 0
-0.289623 -0.073780 0
-0.281755 -0.071379 0
-0.270867 -0.067631 0
-0.257080 -0.062665 0
-0.240575 -0.056544 0
-0.221238 -0.049461 0
-0.199324 -0.041721 0
-0.175186 -0.033680 0
-0.149580 -0.025605 0
-0.124299 -0.017814 0
-0.100919 -0.010774 0
-0.080356 -0.004791 0
-0.062966 -0.000024 0
-0.048760 0.003234 0
-0.037353 0.005112 0
-0.028288 0.006165 0
-0.021158 0.006714 0
-0.015593 0.006982 0
-0.011262 0.007121 0
-0.007835 0.007201 0
-0.005074 0.007190 0
-0.002869 0.006952 0
-0.001216 0.006206 0
-0.000223 0.004323 0
0.000000 -0.000000 0
0.000000 0.000008 0
0.003534 0.124230 0
0.008515 0.185548 0
0.009616 0.202147 0
0.001959 0.183257 0
-0.013300 0.144392 0
-0.028576 0.107307 0
-0.042632 0.081219 0
-0.057128 0.063154 0
-0.073020 0.049041 0
-0.090383 0.036934 0
-0.109006 0.026072 0
-0.128646 0.016082 0
-0.148820 0.006625 0
-0.168946 -0.002386 0
-0.188642 -0.010831 0
-0.207467 -0.018840 0
-0.225145 -0.026626 0
-0.241603 -0.034279 0
-0.256678 -0.041805 0
-0.270135 -0.049145 0
-0.281690 -0.056158 0
-0.291042 -0.062645 0
-0.297894 -0.068373 0
-0.301983 -0.073094 0
-0.303115 -0.076573 0
-0.301183 -0.078614 0
-0.296201 -0.079089 0
-0.288288 -0.077967 0
-0.277716 -0.075302 0
-0.264813 -0.071234 0
-0.249865 -0.066018 0
-0.233219 -0.059959 0
-0.215197 -0.053350 0
-0.196173 -0.046427 0
-0.176398 -0.039423 0
-0.156229 -0.032596 0
-0.136087 -0.026167 0
-0.116413 -0.020314 0
-0.097648 -0.015088 0
-0.080462 -0.010541 0
-0.065111 -0.006737 0
-0.051667 -0.003634 0
-0.040059 -0.001162 0
-0.030139 0.000730 0
-0.021727 0.002110 0
-0.014662 0.003096 0
-0.008849 0.003733 0
-0.004308 0.003903 0
-0.001217 0.003121 0
0.000000 -0.000002 0
0.000000 0.000008 0
0.003673 0.119731 0
0.009246 0.181807 0
0.012089 0.204023 0
0.007699 0.193613 0
-0.005976 0.159654 0
-0.021964 0.122354 0
-0.036753 0.095748 0
-0.051543 0.078438 0
-0.067417 0.065632 0
-0.084497 0.054755 0
-0.102551 0.044857 0
-0.121293 0.035520 0
-0.140440 0.026480 0
-0.159822 0.017566 0
-0.179091 0.008588 0
-0.197834 -0.000503 0
-0.215755 -0.009480 0
-0.232558 -0.018303 0
-0.248089 -0.027126 0
-0.262367 -0.035992 0
-0.275193 -0.044820 0
-0.286286 -0.053443 0
-0.295313 -0.061630 0
-0.301932 -0.069099 0
-0.305829 -0.075551 0
-0.306752 -0.080693 0
-0.304543 -0.084274 0
-0.299172 -0.086115 0
-0.290764 -0.086141 0
-0.279577 -0.084395 0
-0.265986 -0.081055 0
-0.250472 -0.076390 0
-0.233552 -0.070725 0
-0.215716 -0.064403 0
-0.197350 -0.057758 0
-0.178780 -0.051086 0
-0.160270 -0.044607 0
-0.142047 -0.038462 0
-0.124315 -0.032718 0
-0.107194 -0.027425 0
-0.090843 -0.022629 0
-0.075397 -0.018338 0
-0.060973 -0.014546 0
-0.047667 -0.011211 0
-0.035604 -0.008276 0
-0.024892 -0.005689 0
-0.015633 -0.003402 0
-0.008025 -0.001425 0
-0.002493 0.000014 0
0.000000 -0.000004 0
0.000000 0.000008 0
0.003696 0.114984 0
0.009562 0.177133 0
0.013584 0.203694 0
0.011802 0.201322 0
0.000928 0.174056 0
-0.015358 0.138084 0
-0.030859 0.110798 0
-0.045914 0.093819 0
-0.061644 0.081995 0
-0.078286 0.072068 0
-0.095640 0.062868 0
-0.113449 0.053971 0
-0.131497 0.045155 0
-0.149615 0.036266 0
-0.167649 0.027181 0
-0.185538 0.017824 0
-0.203103 0.008098 0
-0.219985 -0.001944 0
-0.235918 -0.011995 0
-0.250655 -0.022041 0
-0.264212 -0.032238 0
-0.276480 -0.042525 0
-0.287166 -0.052727 0
-0.295905 -0.062577 0
-0.302316 -0.071753 0
-0.306030 -0.079900 0
-0.306736 -0.086669 0
-0.304220 -0.091745 0
-0.298410 -0.094897 0
-0.289396 -0.096013 0
-0.277442 -0.095122 0
-0.262970 -0.092392 0
-0.246511 -0.088106 0
-0.228642 -0.082629 0
-0.209922 -0.076359 0
-0.190855 -0.069676 0
-0.171854 -0.062900 0
-0.153226 -0.056268 0
-0.135170 -0.049940 0
-0.117788 -0.044013 0
-0.101148 -0.038534 0
-0.085292 -0.033504 0
-0.070261 -0.028892 0
-0.056108 -0.024638 0
-0.042902 -0.020665 0
-0.030746 -0.016876 0
-0.019825 -0.013134 0
-0.010469 -0.009237 0
-0.003364 -0.004904 0
0.000000 -0.000005 0
0.000000 0.000008 0
0.003628 0.110169 0
0.009560 0.171918 0
0.014307 0.201784 0
0.014491 0.206269 0
0.006759 0.186814 0
-0.008802 0.154141 0
-0.024867 0.126304 0
-0.040156 0.109223 0
-0.055645 0.098004 0
-0.071732 0.088751 0
-0.088296 0.080020 0
-0.105123 0.071377 0
-0.122037 0.062646 0
-0.138912 0.053719 0
-0.155662 0.044511 0
-0.172237 0.034952 0
-0.188582 0.024968 0
-0.204688 0.014513 0
-0.220387 0.003544 0
-0.235301 -0.007697 0
-0.249200 -0.018994 0
-0.262027 -0.030489 0
-0.273742 -0.042204 0
-0.284038 -0.053949 0
-0.292524 -0.065426 0
-0.298776 -0.076273 0
-0.302369 -0.086084 0