# vtk DataFile Version 2.0
generated by CFD-lab course output (written by Tobias Neckel) 
ASCII

DATASET STRUCTURED_GRID
DIMENSIONS  51 51 1 
POINTS 2601 float

0.000000 0.000000 0
0.020000 0.000000 0
0.040000 0.000000 0
0.060000 0.000000 0
0.080000 0.000000 0
0.100000 0.000000 0
0.120000 0.000000 0
0.140000 0.000000 0
0.160000 0.000000 0
0.180000 0.000000 0
0.200000 0.000000 0
0.220000 0.000000 0
0.240000 0.000000 0
0.260000 0.000000 0
0.280000 0.000000 0
0.300000 0.000000 0
0.320000 0.000000 0
0.340000 0.000000 0
0.360000 0.000000 0
0.380000 0.000000 0
0.400000 0.000000 0
0.420000 0.000000 0
0.440000 0.000000 0
0.460000 0.000000 0
0.480000 0.000000 0
0.500000 0.000000 0
0.520000 0.000000 0
0.540000 0.000000 0
0.560000 0.000000 0
0.580000 0.000000 0
0.600000 0.000000 0
0.620000 0.000000 0
0.640000 0.000000 0
0.660000 0.000000 0
0.680000 0.000000 0
0.700000 0.000000 0
0.720000 0.000000 0
0.740000 0.000000 0
0.760000 0.000000 0
0.780000 0.000000 0
0.800000 0.000000 0
0.820000 0.000000 0
0.840000 0.000000 0
0.860000 0.000000 0
0.880000 0.000000 0
0.900000 0.000000 0
0.920000 0.000000 0
0.940000 0.000000 0
0.960000 0.000000 0
0.980000 0.000000 0
1.000000 0.000000 0
0.000000 0.020000 0
0.020000 0.020000 0
0.040000 0.020000 0
0.060000 0.020000 0
0.080000 0.020000 0
0.100000 0.020000 0
0.120000 0.020000 0
0.140000 0.020000 0
0.160000 0.020000 0
0.180000 0.020000 0
0.200000 0.020000 0
0.220000 0.020000 0
0.240000 0.020000 0
0.260000 0.020000 0
0.280000 0.020000 0
0.300000 0.020000 0
0.320000 0.020000 0
0.340000 0.020000 0
0.360000 0.020000 0
0.380000 0.020000 0
0.400000 0.020000 0
0.420000 0.020000 0
0.440000 0.020000 0
0.460000 0.020000 0
0.480000 0.020000 0
0.500000 0.020000 0
0.520000 0.020000 0
0.540000 0.020000 0
0.560000 0.020000 0
0.580000 0.020000 0
0.600000 0.020000 0
0.620000 0.020000 0
0.640000 0.020000 0
0.660000 0.020000 0
0.680000 0.020000 0
0.700000 0.020000 0
0.720000 0.020000 0
0.740000 0.020000 0
0.760000 0.020000 0
0.780000 0.020000 0
0.800000 0.020000 0
0.820000 0.020000 0
0.840000 0.020000 0
0.860000 0.020000 0
0.880000 0.020000 0
0.900000 0.020000 0
0.920000 0.020000 0
0.940000 0.020000 0
0.960000 0.020000 0
0.980000 0.020000 0
1.000000 0.020000 0
0.000000 0.040000 0
0.020000 0.040000 0
0.040000 0.040000 0
0.060000 0.040000 0
0.080000 0.040000 0
0.100000 0.040000 0
0.120000 0.040000 0
0.140000 0.040000 0
0.160000 0.040000 0
0.180000 0.040000 0
0.200000 0.040000 0
0.220000 0.040000 0
0.240000 0.040000 0
0.260000 0.040000 0
0.280000 0.040000 0
0.300000 0.040000 0
0.320000 0.040000 0
0.340000 0.040000 0
0.360000 0.040000 0
0.380000 0.040000 0
0.400000 0.040000 0
0.420000 0.040000 0
0.440000 0.040000 0
0.460000 0.040000 0
0.480000 0.040000 0
0.500000 0.040000 0
0.520000 0.040000 0
0.540000 0.040000 0
0.560000 0.040000 0
0.580000 0.040000 0
0.600000 0.040000 0
0.620000 0.040000 0
0.640000 0.040000 0
0.660000 0.040000 0
0.680000 0.040000 0
0.700000 0.040000 0
0.720000 0.040000 0
0.740000 0.040000 0
0.760000 0.040000 0
0.780000 0.040000 0
0.800000 0.040000 0
0.820000 0.040000 0
0.840000 0.040000 0
0.860000 0.040000 0
0.880000 0.040000 0
0.900000 0.040000 0
0.920000 0.040000 0
0.940000 0.040000 0
0.960000 0.040000 0
0.980000 0.040000 0
1.000000 0.040000 0
0.000000 0.060000 0
0.020000 0.060000 0
0.040000 0.060000 0
0.060000 0.060000 0
0.080000 0.060000 0
0.100000 0.060000 0
0.120000 0.060000 0
0.140000 0.060000 0
0.160000 0.060000 0
0.180000 0.060000 0
0.200000 0.060000 0
0.220000 0.060000 0
0.240000 0.060000 0
0.260000 0.060000 0
0.280000 0.060000 0
0.300000 0.060000 0
0.320000 0.060000 0
0.340000 0.060000 0
0.360000 0.060000 0
0.380000 0.060000 0
0.400000 0.060000 0
0.420000 0.060000 0
0.440000 0.060000 0
0.460000 0.060000 0
0.480000 0.060000 0
0.500000 0.060000 0
0.520000 0.060000 0
0.540000 0.060000 0
0.560000 0.060000 0
0.580000 0.060000 0
0.600000 0.060000 0
0.620000 0.060000 0
0.640000 0.060000 0
0.660000 0.060000 0
0.680000 0.060000 0
0.700000 0.060000 0
0.720000 0.060000 0
0.740000 0.060000 0
0.760000 0.060000 0
0.780000 0.060000 0
0.800000 0.060000 0
0.820000 0.060000 0
0.840000 0.060000 0
0.860000 0.060000 0
0.880000 0.060000 0
0.900000 0.060000 0
0.920000 0.060000 0
0.940000 0.060000 0
0.960000 0.060000 0
0.980000 0.060000 0
1.000000 0.060000 0
0.000000 0.080000 0
0.020000 0.080000 0
0.040000 0.080000 0
0.060000 0.080000 0
0.080000 0.080000 0
0.100000 0.080000 0
0.120000 0.080000 0
0.140000 0.080000 0
0.160000 0.080000 0
0.180000 0.080000 0
0.200000 0.080000 0
0.220000 0.080000 0
0.240000 0.080000 0
0.260000 0.080000 0
0.280000 0.080000 0
0.300000 0.080000 0
0.320000 0.080000 0
0.340000 0.080000 0
0.360000 0.080000 0
0.380000 0.080000 0
0.400000 0.080000 0
0.420000 0.080000 0
0.440000 0.080000 0
0.460000 0.080000 0
0.480000 0.080000 0
0.500000 0.080000 0
0.520000 0.080000 0
0.540000 0.080000 0
0.560000 0.080000 0
0.580000 0.080000 0
0.600000 0.080000 0
0.620000 0.080000 0
0.640000 0.080000 0
0.660000 0.080000 0
0.680000 0.080000 0
0.700000 0.080000 0
0.720000 0.080000 0
0.740000 0.080000 0
0.760000 0.080000 0
0.780000 0.080000 0
0.800000 0.080000 0
0.820000 0.080000 0
0.840000 0.080000 0
0.860000 0.080000 0
0.880000 0.080000 0
0.900000 0.080000 0
0.920000 0.080000 0
0.940000 0.080000 0
0.960000 0.080000 0
0.980000 0.080000 0
1.000000 0.080000 0
0.000000 0.100000 0
0.020000 0.100000 0
0.040000 0.100000 0
0.060000 0.100000 0
0.080000 0.100000 0
0.100000 0.100000 0
0.120000 0.100000 0
0.140000 0.100000 0
0.160000 0.100000 0
0.180000 0.100000 0
0.200000 0.100000 0
0.220000 0.100000 0
0.240000 0.100000 0
0.260000 0.100000 0
0.280000 0.100000 0
0.300000 0.100000 0
0.320000 0.100000 0
0.340000 0.100000 0
0.360000 0.100000 0
0.380000 0.100000 0
0.400000 0.100000 0
0.420000 0.100000 0
0.440000 0.100000 0
0.460000 0.100000 0
0.480000 0.100000 0
0.500000 0.100000 0
0.520000 0.100000 0
0.540000 0.100000 0
0.560000 0.100000 0
0.580000 0.100000 0
0.600000 0.100000 0
0.620000 0.100000 0
0.640000 0.100000 0
0.660000 0.100000 0
0.680000 0.100000 0
0.700000 0.100000 0
0.720000 0.100000 0
0.740000 0.100000 0
0.760000 0.100000 0
0.780000 0.100000 0
0.800000 0.100000 0
0.820000 0.100000 0
0.840000 0.100000 0
0.860000 0.100000 0
0.880000 0.100000 0
0.900000 0.100000 0
0.920000 0.100000 0
0.940000 0.100000 0
0.960000 0.100000 0
0.980000 0.100000 0
1.000000 0.100000 0
0.000000 0.120000 0
0.020000 0.120000 0
0.040000 0.120000 0
0.060000 0.120000 0
0.080000 0.120000 0
0.100000 0.120000 0
0.120000 0.120000 0
0.140000 0.120000 0
0.160000 0.120000 0
0.180000 0.120000 0
0.200000 0.120000 0
0.220000 0.120000 0
0.240000 0.120000 0
0.260000 0.120000 0
0.280000 0.120000 0
0.300000 0.120000 0
0.320000 0.120000 0
0.340000 0.120000 0
0.360000 0.120000 0
0.380000 0.120000 0
0.400000 0.120000 0
0.420000 0.120000 0
0.440000 0.120000 0
0.460000 0.120000 0
0.480000 0.120000 0
0.500000 0.120000 0
0.520000 0.120000 0
0.540000 0.120000 0
0.560000 0.120000 0
0.580000 0.120000 0
0.600000 0.120000 0
0.620000 0.120000 0
0.640000 0.120000 0
0.660000 0.120000 0
0.680000 0.120000 0
0.700000 0.120000 0
0.720000 0.120000 0
0.740000 0.120000 0
0.760000 0.120000 0
0.780000 0.120000 0
0.800000 0.120000 0
0.820000 0.120000 0
0.840000 0.120000 0
0.860000 0.120000 0
0.880000 0.120000 0
0.900000 0.120000 0
0.920000 0.120000 0
0.940000 0.120000 0
0.960000 0.120000 0
0.980000 0.120000 0
1.000000 0.120000 0
0.000000 0.140000 0
0.020000 0.140000 0
0.040000 0.140000 0
0.060000 0.140000 0
0.080000 0.140000 0
0.100000 0.140000 0
0.120000 0.140000 0
0.140000 0.140000 0
0.160000 0.140000 0
0.180000 0.140000 0
0.200000 0.140000 0
0.220000 0.140000 0
0.240000 0.140000 0
0.260000 0.140000 0
0.280000 0.140000 0
0.300000 0.140000 0
0.320000 0.140000 0
0.340000 0.140000 0
0.360000 0.140000 0
0.380000 0.140000 0
0.400000 0.140000 0
0.420000 0.140000 0
0.440000 0.140000 0
0.460000 0.140000 0
0.480000 0.140000 0
0.500000 0.140000 0
0.520000 0.140000 0
0.540000 0.140000 0
0.560000 0.140000 0
0.580000 0.140000 0
0.600000 0.140000 0
0.620000 0.140000 0
0.640000 0.140000 0
0.660000 0.140000 0
0.680000 0.140000 0
0.700000 0.140000 0
0.720000 0.140000 0
0.740000 0.140000 0
0.760000 0.140000 0
0.780000 0.140000 0
0.800000 0.140000 0
0.820000 0.140000 0
0.840000 0.140000 0
0.860000 0.140000 0
0.880000 0.140000 0
0.900000 0.140000 0
0.920000 0.140000 0
0.940000 0.140000 0
0.960000 0.140000 0
0.980000 0.140000 0
1.000000 0.140000 0
0.000000 0.160000 0
0.020000 0.160000 0
0.040000 0.160000 0
0.060000 0.160000 0
0.080000 0.160000 0
0.100000 0.160000 0
0.120000 0.160000 0
0.140000 0.160000 0
0.160000 0.160000 0
0.180000 0.160000 0
0.200000 0.160000 0
0.220000 0.160000 0
0.240000 0.160000 0
0.260000 0.160000 0
0.280000 0.160000 0
0.300000 0.160000 0
0.320000 0.160000 0
0.340000 0.160000 0
0.360000 0.160000 0
0.380000 0.160000 0
0.400000 0.160000 0
0.420000 0.160000 0
0.440000 0.160000 0
0.460000 0.160000 0
0.480000 0.160000 0
0.500000 0.160000 0
0.520000 0.160000 0
0.540000 0.160000 0
0.560000 0.160000 0
0.580000 0.160000 0
0.600000 0.160000 0
0.620000 0.160000 0
0.640000 0.160000 0
0.660000 0.160000 0
0.680000 0.160000 0
0.700000 0.160000 0
0.720000 0.160000 0
0.740000 0.160000 0
0.760000 0.160000 0
0.780000 0.160000 0
0.800000 0.160000 0
0.820000 0.160000 0
0.840000 0.160000 0
0.860000 0.160000 0
0.880000 0.160000 0
0.900000 0.160000 0
0.920000 0.160000 0
0.940000 0.160000 0
0.960000 0.160000 0
0.980000 0.160000 0
1.000000 0.160000 0
0.000000 0.180000 0
0.020000 0.180000 0
0.040000 0.180000 0
0.060000 0.180000 0
0.080000 0.180000 0
0.100000 0.180000 0
0.120000 0.180000 0
0.140000 0.180000 0
0.160000 0.180000 0
0.180000 0.180000 0
0.200000 0.180000 0
0.220000 0.180000 0
0.240000 0.180000 0
0.260000 0.180000 0
0.280000 0.180000 0
0.300000 0.180000 0
0.320000 0.180000 0
0.340000 0.180000 0
0.360000 0.180000 0
0.380000 0.180000 0
0.400000 0.180000 0
0.420000 0.180000 0
0.440000 0.180000 0
0.460000 0.180000 0
0.480000 0.180000 0
0.500000 0.180000 0
0.520000 0.180000 0
0.540000 0.180000 0
0.560000 0.180000 0
0.580000 0.180000 0
0.600000 0.180000 0
0.620000 0.180000 0
[...]
POINT_DATA 2601 

VECTORS velocity float
0.000000 0.000000 0
0.000000 0.000000 0
-0.000000 0.000000 0
-0.000002 0.000000 0
-0.000004 0.000000 0
-0.000007 0.000000 0
-0.000011 0.000000 0
-0.000016 0.000000 0
-0.000022 0.000000 0
-0.000029 0.000000 0
-0.000034 0.000000 0
-0.000036 0.000000 0
-0.000036 0.000000 0
-0.000030 0.000000 0
-0.000020 0.000000 0
-0.000008 0.000000 0
0.000003 0.000000 0
0.000010 0.000000 0
0.000014 0.000000 0
0.000015 0.000000 0
0.000016 0.000000 0
0.000015 0.000000 0
0.000014 0.000000 0
0.000012 0.000000 0
0.000010 0.000000 0
0.000007 0.000000 0
0.000005 0.000000 0
0.000003 0.000000 0
0.000002 0.000000 0
0.000001 0.000000 0
0.000001 0.000000 0
0.000000 0.000000 0
0.000000 0.000000 0
0.000001 0.000000 0
0.000001 0.000000 0
0.000001 0.000000 0
0.000001 0.000000 0
0.000001 0.000000 0
0.000001 0.000000 0
0.000001 0.000000 0
0.000001 0.000000 0
0.000001 0.000000 0
0.000001 0.000000 0
0.000001 0.000000 0
0.000001 0.000000 0
0.000001 0.000000 0
0.000001 0.000000 0
0.000000 0.000000 0
0.000000 0.000000 0
0.000000 0.000000 0
0.000000 0.000000 0
0.000000 -0.000000 0
-0.009971 0.009069 0
-0.026008 0.010319 0
-0.038587 0.006942 0
-0.046706 0.003522 0
-0.050819 0.000456 0
-0.050900 -0.002938 0
-0.046634 -0.007090 0
-0.037533 -0.011981 0
-0.023254 -0.017155 0
-0.003760 -0.021373 0
0.020550 -0.023781 0
0.048380 -0.023982 0
0.077467 -0.021363 0
0.105260 -0.015978 0
0.128581 -0.008787 0
0.144480 -0.001509 0
0.150908 0.004396 0
0.147695 0.008694 0
0.137250 0.011855 0
0.121636 0.014205 0
0.102604 0.015754 0
0.081830 0.016323 0
0.060964 0.015713 0
0.041557 0.013889 0
0.024896 0.011081 0
0.011836 0.007789 0
0.002680 0.004614 0
-0.002862 0.002170 0
-0.005565 0.000741 0
-0.006662 0.000078 0
-0.006958 -0.000181 0
-0.006870 -0.000269 0
-0.006594 -0.000300 0
-0.006203 -0.000324 0
-0.005719 -0.000355 0
-0.005149 -0.000391 0
-0.004507 -0.000423 0
-0.003813 -0.000443 0
-0.003098 -0.000445 0
-0.002398 -0.000425 0
-0.001748 -0.000384 0
-0.001179 -0.000326 0
-0.000715 -0.000257 0
-0.000367 -0.000183 0
-0.000135 -0.000112 0
-0.000006 -0.000053 0
0.000042 -0.000011 0
0.000038 0.000012 0
0.000015 0.000015 0
0.000000 0.000000 0
0.000000 -0.000001 0
-0.014834 0.026008 0
-0.036652 0.028616 0
-0.054478 0.020698 0
-0.066973 0.012232 0
-0.074477 0.004193 0
-0.077054 -0.004186 0
-0.074916 -0.013369 0
-0.068197 -0.023381 0
-0.057012 -0.033774 0
-0.041353 -0.043805 0
-0.020690 -0.052141 0
0.004988 -0.056919 0
0.035564 -0.056883 0
0.070007 -0.051115 0
0.105453 -0.039221 0
0.138125 -0.022328 0
0.162405 -0.003215 0
0.173849 0.013657 0
0.170558 0.026059 0
0.156579 0.034645 0
0.135645 0.039806 0
0.111113 0.041640 0
0.085780 0.040272 0
0.061783 0.036068 0
0.040598 0.029722 0
0.023129 0.022215 0
0.009804 0.014698 0
0.000565 0.008246 0
-0.005016 0.003800 0
-0.007856 0.001393 0
-0.009146 0.000208 0
-0.009564 -0.000363 0
-0.009477 -0.000667 0
-0.009069 -0.000875 0
-0.008424 -0.001054 0
-0.007593 -0.001212 0
-0.006621 -0.001336 0
-0.005560 -0.001408 0
-0.004469 -0.001415 0
-0.003409 -0.001350 0
-0.002437 -0.001218 0
-0.001599 -0.001032 0
-0.000926 -0.000812 0
-0.000433 -0.000580 0
-0.000116 -0.000361 0
0.000049 -0.000177 0
0.000096 -0.000045 0
0.000071 0.000027 0
0.000025 0.000039 0
0.000000 0.000000 0
0.000000 -0.000000 0
-0.015921 0.045721 0
-0.039612 0.049962 0
-0.059468 0.037263 0
-0.073803 0.023520 0
-0.083200 0.010537 0
-0.088069 -0.002498 0
-0.088807 -0.015948 0
-0.085937 -0.029886 0
-0.079727 -0.044000 0
-0.070325 -0.057696 0
-0.057704 -0.070123 0
-0.041339 -0.080237 0
-0.020242 -0.086382 0
0.006103 -0.085867 0
0.037936 -0.076906 0
0.073922 -0.058461 0
0.109385 -0.031328 0
0.138497 0.000542 0
0.152069 0.029124 0
0.149178 0.049116 0
0.135373 0.061220 0
0.115444 0.066188 0
0.093095 0.065043 0
0.070933 0.059070 0
0.050588 0.049735 0
0.032986 0.038583 0
0.018607 0.027179 0
0.007615 0.016990 0
-0.000135 0.009161 0
-0.004887 0.004208 0
-0.007430 0.001527 0
-0.008623 0.000063 0
-0.008978 -0.000795 0
-0.008776 -0.001377 0
-0.008190 -0.001831 0
-0.007325 -0.002194 0
-0.006271 -0.002456 0
-0.005115 -0.002595 0
-0.003942 -0.002595 0
-0.002828 -0.002457 0
-0.001838 -0.002195 0
-0.001019 -0.001837 0
-0.000397 -0.001422 0
0.000021 -0.000993 0
0.000248 -0.000594 0
0.000313 -0.000264 0
0.000264 -0.000033 0
0.000155 0.000083 0
0.000048 0.000087 0
0.000000 0.000000 0
0.000000 0.000000 0
-0.014903 0.065620 0
-0.038483 0.072163 0
-0.059008 0.054888 0
-0.074082 0.035964 0
-0.084504 0.018459 0
-0.091009 0.001421 0
-0.094096 -0.015501 0
-0.094370 -0.032461 0
-0.092156 -0.049387 0
-0.087606 -0.065829 0
-0.080730 -0.081128 0
-0.071333 -0.094382 0
-0.059119 -0.104324 0
-0.043320 -0.109294 0
-0.022409 -0.107040 0
0.004271 -0.093777 0
0.036918 -0.067791 0
0.073029 -0.029027 0
0.103410 0.015377 0
0.115026 0.051342 0
0.113054 0.073539 0
0.102979 0.083917 0
0.088546 0.084783 0
0.072430 0.078576 0
0.056321 0.067669 0
0.041272 0.054195 0
0.027942 0.040069 0
0.016741 0.026989 0
0.007934 0.016303 0
0.001619 0.008687 0
-0.002313 0.003944 0
-0.004494 0.001185 0
-0.005481 -0.000514 0
-0.005650 -0.001664 0
-0.005289 -0.002505 0
-0.004581 -0.003130 0
-0.003665 -0.003546 0
-0.002661 -0.003738 0
-0.001673 -0.003702 0
-0.000783 -0.003454 0
-0.000049 -0.003028 0
0.000496 -0.002473 0
0.000841 -0.001851 0
0.000991 -0.001224 0
0.000969 -0.000653 0
0.000811 -0.000193 0
0.000568 0.000114 0
0.000304 0.000243 0
0.000091 0.000193 0
0.000000 0.000000 0
0.000000 0.000001 0
-0.012700 0.084204 0
-0.034939 0.094066 0
-0.055502 0.072861 0
-0.070945 0.049016 0
-0.082052 0.027463 0
-0.089826 0.007093 0
-0.094884 -0.012587 0
-0.097717 -0.031826 0
-0.098794 -0.050764 0
-0.098310 -0.069123 0
-0.096340 -0.086398 0
-0.092802 -0.101847 0
-0.087451 -0.114395 0
-0.079785 -0.122578 0
-0.069076 -0.124497 0
-0.054167 -0.117789 0
-0.032606 -0.100086 0
-0.003980 -0.065950 0
0.031090 -0.012872 0
0.063863 0.039472 0
0.075218 0.073267 0
0.077652 0.090697 0
0.074161 0.095592 0
0.067025 0.091295 0
0.057685 0.080893 0
0.047297 0.066962 0
0.036775 0.051710 0
0.026813 0.036998 0
0.018042 0.024283 0
0.010989 0.014456 0
0.005888 0.007641 0
0.002627 0.003230 0
0.000804 0.000360 0
0.000012 -0.001568 0
-0.000079 -0.002899 0
0.000243 -0.003818 0
0.000776 -0.004376 0
0.001368 -0.004586 0
0.001910 -0.004473 0
0.002329 -0.004081 0
0.002585 -0.003474 0
0.002662 -0.002726 0
0.002567 -0.001916 0
0.002317 -0.001121 0
0.001940 -0.000414 0
0.001475 0.000136 0
0.000974 0.000474 0
0.000504 0.000561 0
0.000149 0.000391 0
0.000000 0.000001 0
0.000000 0.000002 0
-0.009907 0.100558 0
-0.029940 0.114965 0
-0.050176 0.090893 0
-0.065914 0.062513 0
-0.077607 0.037340 0
-0.086459 0.014253 0
-0.093175 -0.007610 0
-0.098129 -0.028551 0
-0.101941 -0.048793 0
-0.104870 -0.068283 0
-0.107079 -0.086637 0
-0.108613 -0.103272 0
-0.109355 -0.117342 0
-0.108928 -0.127669 0
-0.106633 -0.132658 0
-0.101366 -0.130248 0
-0.091578 -0.117978 0
-0.075697 -0.092722 0
-0.049030 -0.052466 0
-0.009785 0.007213 0
0.024322 0.059751 0
0.043394 0.084974 0
0.052064 0.095409 0
0.055332 0.095052 0
0.054314 0.087397 0
0.050170 0.075105 0
0.043988 0.060553 0
0.036655 0.045721 0
0.029119 0.032126 0
0.022229 0.020842 0
0.016575 0.012306 0
0.012411 0.006270 0
0.009632 0.002102 0
0.007947 -0.000781 0
0.007077 -0.002736 0
0.006693 -0.003986 0
0.006536 -0.004671 0
0.006435 -0.004872 0
0.006283 -0.004663 0
0.006024 -0.004128 0
0.005637 -0.003360 0
0.005122 -0.002455 0
0.004496 -0.001505 0
0.003781 -0.000597 0
0.003005 0.000188 0
0.002202 0.000773 0
0.001419 0.001085 0
0.000725 0.001068 0
0.000214 0.000698 0
0.000000 0.000001 0
0.000000 0.000003 0
-0.006966 0.114143 0
-0.024133 0.134336 0
-0.043715 0.108836 0
-0.059764 0.076446 0
-0.072013 0.048008 0
-0.081788 0.022661 0
-0.089891 -0.000917 0
-0.096719 -0.023060 0
-0.102848 -0.044023 0
-0.108660 -0.063985 0
-0.114375 -0.082655 0
-0.120131 -0.099572 0
-0.125937 -0.114081 0
-0.131595 -0.125300 0
-0.136587 -0.132059 0
-0.139909 -0.132844 0
-0.139910 -0.125755 0
-0.134188 -0.108499 0
-0.119136 -0.078784 0
-0.091528 -0.033879 0
-0.044603 0.020087 0
-0.003203 0.062955 0
0.022857 0.083655 0
0.038230 0.089044 0
0.046204 0.086054 0
0.049219 0.077288 0
0.048553 0.065225 0
0.045059 0.051867 0
0.039946 0.038709 0
0.034262 0.027000 0
0.028802 0.017459 0
0.024120 0.010172 0
0.020457 0.004824 0
0.017744 0.000987 0
0.015757 -0.001644 0
0.014285 -0.003277 0
0.013094 -0.004118 0
0.012013 -0.004333 0
0.010946 -0.004062 0
0.009849 -0.003435 0
0.008713 -0.002572 0
0.007544 -0.001586 0
0.006360 -0.000575 0
0.005175 0.000371 0
0.004009 0.001165 0
0.002886 0.001722 0
0.001842 0.001950 0
0.000939 0.001766 0
0.000278 0.001116 0
0.000000 0.000001 0
0.000000 0.000004 0
-0.004218 0.124691 0
-0.018015 0.151714 0
-0.036533 0.126524 0
-0.052885 0.090810 0
-0.065671 0.059364 0
-0.076223 0.032131 0
-0.085548 0.007320 0
-0.094154 -0.015594 0
-0.102289 -0.036853 0
-0.110576 -0.056758 0
-0.119258 -0.075166 0
-0.128493 -0.091710 0
-0.138333 -0.105878 0
-0.148666 -0.117019 0
-0.159123 -0.124344 0
-0.168926 -0.126924 0
-0.176669 -0.123699 0
-0.180067 -0.113497 0
-0.175696 -0.095126 0
-0.159151 -0.067320 0
-0.124523 -0.028575 0
-0.074188 0.017514 0
-0.024071 0.053976 0
0.011133 0.071705 0
0.032396 0.076408 0
0.043900 0.072757 0
0.049711 0.064713 0
0.050917 0.054327 0
0.049245 0.042923 0
0.045768 0.031985 0
0.041286 0.022448 0
0.036582 0.014615 0
0.032261 0.008477 0
0.028525 0.003920 0
0.025281 0.000723 0
0.022427 -0.001323 0
0.019882 -0.002399 0
0.017569 -0.002724 0
0.015419 -0.002500 0
0.013388 -0.001895 0
0.011461 -0.001056 0
0.009637 -0.000102 0
0.007921 0.000864 0
0.006315 0.001753 0
0.004821 0.002477 0
0.003443 0.002940 0
0.002196 0.003032 0
0.001127 0.002632 0
0.000338 0.001637 0
0.000000 0.000001 0
0.000000 0.000005 0
-0.001903 0.132158 0
-0.011995 0.166651 0
-0.028923 0.143705 0
-0.045493 0.105584 0
-0.058839 0.071346 0
-0.070074 0.042538 0
-0.080478 0.017014 0
-0.090661 -0.006319 0
-0.100668 -0.027602 0
-0.111127 -0.047017 0
-0.122343 -0.064738 0
-0.134449 -0.080497 0
-0.147453 -0.093909 0
-0.161206 -0.104510 0
-0.175351 -0.111799 0
-0.189220 -0.115298 0
-0.201717 -0.114614 0
-0.211164 -0.109472 0
-0.215175 -0.099701 0
-0.210645 -0.085052 0
-0.193706 -0.064875 0
-0.159767 -0.037497 0
-0.108990 -0.001667 0
-0.054499 0.032578 0
-0.007337 0.053287 0
0.024875 0.059973 0
0.043129 0.058209 0
0.051393 0.052333 0
0.054728 0.043857 0
0.054586 0.034959 0
0.051833 0.026645 0
0.047645 0.019197 0
0.043072 0.012881 0
0.038516 0.007968 0
0.034093 0.004453 0
0.029864 0.002122 0
0.025941 0.000740 0
0.022359 0.000130 0
0.019100 0.000119 0
0.016141 0.000523 0
0.013471 0.001179 0
0.011075 0.001954 0
0.008933 0.002747 0
0.007021 0.003470 0
0.005315 0.004038 0
0.003790 0.004347 0
0.002434 0.004266 0
0.001271 0.003624 0
0.000393 0.002243 0
0.000000 0.000001 0
0.000000 0.000006 0
-0.000179 0.136686 0
-0.006418 0.178734 0
-0.021141 0.160022 0
-0.037728 0.120726 0
-0.051674 0.083944 0
-0.063506 0.053770 0
-0.074754 0.027907 0
-0.086218 0.004595 0
-0.098167 -0.016388 0
-0.110560 -0.035083 0
-0.123924 -0.051843 0
-0.138364 -0.066600 0
-0.153800 -0.079121 0
-0.169989 -0.089121 0
-0.186493 -0.096330 0
-0.202648 -0.100558 0
-0.217551 -0.101755 0
-0.230063 -0.100038 0
-0.238831 -0.095646 0
-0.242311 -0.088790 0
-0.238686 -0.079452 0
-0.225636 -0.067202 0
-0.199692 -0.051292 0
-0.157478 -0.029948 0
-0.106029 -0.002966 0
-0.054182 0.022291 0
-0.010199 0.038195 0
0.022470 0.042729 0
0.041664 0.039730 0
0.050612 0.034880 0
0.052848 0.029389 0
0.051297 0.023376 0
0.048064 0.017607 0
0.043769 0.012899 0
0.038870 0.009375 0
0.033857 0.006829 0
0.029108 0.005106 0
0.024720 0.004117 0
0.020730 0.003718 0
0.017168 0.003734 0
0.014048 0.004011 0
0.011351 0.004436 0
0.009029 0.004918 0
0.007029 0.005372 0
0.005301 0.005709 0
0.003798 0.005821 0
0.002479 0.005552 0
0.001336 0.004674 0
0.000437 0.002908 0
0.000000 0.000001 0
0.000000 0.000006 0
0.001044 0.138576 0
-0.001606 0.187614 0
-0.013464 0.175015 0
-0.029698 0.136117 0
-0.044275 0.097123 0
-0.056663 0.065618 0
-0.068541 0.039726 0
-0.081020 0.017094 0
-0.094567 -0.003261 0
-0.108890 -0.021260 0
-0.124075 -0.036934 0
-0.140346 -0.050621 0
-0.157568 -0.062283 0
-0.175410 -0.071817 0
-0.193377 -0.079140 0
-0.210803 -0.084240 0
-0.226906 -0.087198 0
-0.240855 -0.088192 0
-0.251853 -0.087453 0
-0.259189 -0.085197 0
-0.262208 -0.081550 0
-0.260169 -0.076491 0
-0.252017 -0.069824 0
-0.236326 -0.061085 0
-0.210356 -0.050009 0
-0.172547 -0.035857 0
-0.127740 -0.018444 0
-0.082076 0.000470 0
-0.042201 0.015715 0
-0.010607 0.023775 0
0.012150 0.025960 0
0.026032 0.023980 0
0.032114 0.020409 0
0.033227 0.017162 0
0.031486 0.014366 0
0.028373 0.011884 0
0.024877 0.009876 0
0.021280 0.008508 0
0.017801 0.007671 0
0.014620 0.007205 0
0.011833 0.006996 0
0.009466 0.006973 0
0.007470 0.007069 0
0.005795 0.007198 0
0.004388 0.007269 0
0.003195 0.007170 0
0.002158 0.006729 0
0.001233 0.005667 0
0.000444 0.003579 0
0.000000 0.000001 0
0.000000 0.000007 0
0.001978 0.138292 0
0.002220 0.193243 0
-0.006218 0.188115 0
-0.021542 0.151537 0
-0.036723 0.110909 0
-0.049729 0.078035 0
-0.062125 0.052264 0
-0.075306 0.030622 0
-0.089830 0.011483 0
-0.105793 -0.005574 0
-0.122706 -0.020388 0
-0.140376 -0.033108 0
-0.158818 -0.044056 0
-0.177668 -0.053312 0
-0.196461 -0.060937 0
-0.214594 -0.067028 0
-0.231419 -0.071702 0
-0.246294 -0.075092 0
-0.258656 -0.077312 0
-0.268066 -0.078434 0
-0.274215 -0.078472 0
-0.276882 -0.077394 0
-0.275867 -0.075135 0
-0.270890 -0.071609 0
-0.261403 -0.066745 0
-0.246931 -0.060325 0
-0.226220 -0.052275 0
-0.198541 -0.042810 0
-0.164306 -0.031740 0
-0.127963 -0.019470 0
-0.093259 -0.007250 0
-0.062975 0.003412 0
-0.038941 0.010413 0
-0.021039 0.013527 0
-0.008612 0.014228 0
-0.000912 0.013438 0
0.002975 0.012199 0
0.004559 0.011193 0
0.004831 0.010379 0
0.004466 0.009701 0
0.003852 0.009164 0
0.003217 0.008799 0
0.002631 0.008589 0
0.002129 0.008454 0
0.001723 0.008308 0
0.001396 0.008051 0
0.001096 0.007514 0
0.000758 0.006388 0
0.000346 0.004141 0
0.000000 0.000001 0
0.000000 0.000007 0
0.002679 0.136356 0
0.005048 0.195810 0
0.000251 0.198776 0
-0.013458 0.166621 0
-0.029079 0.125311 0
-0.042808 0.091020 0
-0.055684 0.065303 0
-0.069317 0.044798 0
-0.084405 0.027226 0
-0.101138 0.011616 0
-0.119267 -0.002350 0
-0.138232 -0.014508 0
-0.157539 -0.024991 0
-0.176917 -0.034173 0
-0.196074 -0.042214 0
-0.214529 -0.049281 0
-0.231808 -0.055499 0
-0.247432 -0.060956 0
-0.260969 -0.065681 0
-0.272054 -0.069638 0
-0.280400 -0.072734 0
-0.285797 -0.074839 0
-0.288115 -0.075816 0
-0.287289 -0.075549 0
-0.283305 -0.073967 0
-0.276194 -0.071040 0
-0.265832 -0.066833 0
-0.252198 -0.061443 0
-0.235330 -0.054863 0
-0.214894 -0.047272 0
-0.191102 -0.039028 0
-0.164604 -0.030338 0
-0.136916 -0.021527 0
-0.110565 -0.013166 0
-0.087005 -0.005761 0
-0.067003 0.000296 0
-0.050849 0.004405 0
-0.038151 0.006653 0
-0.028374 0.007764 0
-0.021020 0.008184 0
-0.015594 0.008245 0
-0.011642 0.008194 0
-0.008636 0.008157 0
-0.006252 0.008105 0
-0.004305 0.008002 0
-0.002692 0.007797 0
-0.001398 0.007366 0
-0.000467 0.006417 0
0.000004 0.004337 0
0.000000 -0.000000 0
0.000000 0.000008 0
0.003166 0.133244 0
0.007045 0.195671 0
0.005515 0.206620 0
-0.005655 0.180867 0
-0.021395 0.140260 0
-0.035934 0.104640 0
-0.049346 0.078773 0
-0.063324 0.059343 0
-0.078692 0.043303 0
-0.095588 0.029287 0
-0.113915 0.016707 0
-0.133355 0.005165 0
-0.153237 -0.005371 0
-0.173120 -0.014777 0
-0.192459 -0.023325 0
-0.210979 -0.031294 0
-0.228475 -0.038799 0
-0.244630 -0.045930 0
-0.259141 -0.052689 0
-0.271690 -0.059003 0
-0.281976 -0.064729 0
-0.289721 -0.069678 0
-0.294694 -0.073642 0
-0.296724 -0.076419 0
-0.295725 -0.077840 0
-0.291712 -0.077798 0
-0.284789 -0.076271 0
-0.275192 -0.073312 0
-0.263185 -0.069044 0
-0.248955 -0.063698 0
-0.232789 -0.057539 0
-0.214993 -0.050773 0
-0.195773 -0.043627 0
-0.175435 -0.036385 0
-0.154432 -0.029333 0
-0.133304 -0.022718 0
-0.112704 -0.016653 0
-0.093655 -0.011281 0
-0.076611 -0.006752 0
-0.061768 -0.003079 0
-0.049074 -0.000214 0
-0.038359 0.001840 0
-0.029358 0.003199 0
-0.021816 0.004124 0
-0.015523 0.004749 0
-0.010327 0.005144 0
-0.006121 0.005288 0
-0.002893 0.004986 0
-0.000760 0.003674 0
0.000000 -0.000001 0
0.000000 0.000008 0
0.003475 0.129311 0
0.008383 0.193461 0
0.009353 0.211476 0
0.001523 0.193531 0
-0.013747 0.155590 0
-0.029087 0.118971 0
-0.043124 0.092693 0
-0.057402 0.074145 0
-0.072887 0.059490 0
-0.089705 0.046839 0
-0.107680 0.035417 0
-0.126558 0.024814 0
-0.146124 0.014775 0
-0.165889 0.005049 0
-0.185317 -0.004355 0
-0.204059 -0.013265 0
-0.221712 -0.021847 0
-0.238155 -0.030289 0
-0.253320 -0.038620 0
-0.266977 -0.046803 0
-0.278854 -0.054702 0
-0.288641 -0.062120 0
-0.296025 -0.068813 0
-0.300720 -0.074518 0
-0.302500 -0.078979 0
-0.301223 -0.081975 0
-0.296864 -0.083353 0
-0.289540 -0.083048 0
-0.279485 -0.081099 0
-0.267038 -0.077667 0
-0.252647 -0.072990 0
-0.236769 -0.067354 0
-0.219802 -0.061086 0
-0.202097 -0.054508 0
-0.183964 -0.047891 0
-0.165690 -0.041431 0
-0.147535 -0.035244 0
-0.129670 -0.029441 0
-0.112327 -0.024123 0
-0.095714 -0.019352 0
-0.080027 -0.015164 0
-0.065418 -0.011522 0
-0.052115 -0.008386 0
-0.040191 -0.005730 0
-0.029651 -0.003487 0
-0.020490 -0.001605 0
-0.012712 -0.000068 0
-0.006422 0.001055 0
-0.001939 0.001444 0
0.000000 -0.000003 0
0.000000 0.000008 0
0.003637 0.124861 0
0.009183 0.189793 0
0.011961 0.213479 0
0.007453 0.203967 0
-0.006226 0.170870 0
-0.022213 0.134017 0
-0.036950 0.107089 0
-0.051500 0.089107 0
-0.066958 0.075606 0
-0.083509 0.064080 0
-0.100966 0.053561 0
-0.119083 0.043610 0
-0.137628 0.033959 0
-0.156369 0.024416 0
-0.175164 0.014845 0
-0.193651 0.005102 0
-0.211418 -0.004703 0
-0.228203 -0.014322 0
-0.243744 -0.023866 0
-0.258070 -0.033469 0
-0.271053 -0.043064 0
-0.282421 -0.052508 0
-0.291835 -0.061563 0
-0.298940 -0.069944 0
-0.303398 -0.077338 0
-0.304923 -0.083433 0
-0.303321 -0.087954 0
-0.298525 -0.090692 0
-0.290613 -0.091545 0
-0.279823 -0.090536 0
-0.266539 -0.087808 0
-0.251244 -0.083617 0
-0.234464 -0.078299 0
-0.216731 -0.072223 0
-0.198527 -0.065740 0
-0.180251 -0.059147 0
-0.162190 -0.052673 0
-0.144518 -0.046490 0
-0.127360 -0.040708 0
-0.110803 -0.035378 0
-0.094925 -0.030510 0
-0.079804 -0.026071 0
-0.065488 -0.022027 0
-0.052051 -0.018340 0
-0.039582 -0.014953 0
-0.028184 -0.011795 0
-0.018032 -0.008779 0
-0.009432 -0.005787 0
-0.002997 -0.002748 0
0.000000 -0.000005 0
0.000000 0.000008 0
0.003683 0.120129 0
0.009564 0.185138 0
0.013588 0.213206 0
0.011769 0.211718 0
0.000909 0.185257 0
-0.015315 0.149695 0
-0.030736 0.121980 0
-0.045540 0.104153 0
-0.060853 0.091499 0
-0.076986 0.080847 0
-0.093787 0.070991 0
-0.111030 0.061476 0
-0.128515 0.052061 0
-0.146082 0.042586 0
-0.163604 0.032928 0
-0.180970 0.022990 0
-0.198127 0.012705 0
-0.214785 0.002037 0
-0.230587 -0.008753 0
-0.245299 -0.019494 0
-0.258859 -0.030350 0
-0.271238 -0.041337 0
-0.282154 -0.052294 0
-0.291240 -0.062956 0
-0.298104 -0.072996 0
-0.302357 -0.082051 0
-0.303654 -0.089751 0
-0.301747 -0.095756 0
-0.296521 -0.099802 0
-0.288034 -0.101740 0
-0.276526 -0.101568 0
-0.262394 -0.099429 0
-0.246162 -0.095599 0
-0.228416 -0.090445 0
-0.209745 -0.084371 0
-0.190681 -0.077768 0
-0.171657 -0.070977 0
-0.152994 -0.064271 0
-0.134917 -0.057837 0
-0.117563 -0.051787 0
-0.101009 -0.046163 0
-0.085289 -0.040959 0
-0.070410 -0.036138 0
-0.056387 -0.031635 0
-0.043261 -0.027354 0
-0.031116 -0.023154 0
-0.020132 -0.018820 0
-0.010661 -0.013980 0
-0.003424 -0.007988 0
0.000000 -0.000005 0
0.000000 0.000008 0
0.003637 0.115297 0
0.009624 0.179888 0
0.014437 0.211274 0
0.014669 0.216647 0
0.007006 0.197954 0
-0.008423 0.165661 0
-0.024396 0.137314 0
-0.039440 0.119224 0
-0.054526 0.107052 0
-0.070129 0.097015 0
-0.086177 0.087605 0
-0.102479 0.078338 0
-0.118863 0.069011 0
-0.135206 0.059505 0
-0.151426 0.049734 0
-0.167477 0.039625 0
-0.183332 0.029113 0
-0.198959 0.018139 0
-0.214309 0.006648 0
-0.229019 -0.005196 0
-0.242810 -0.017125 0
-0.255582 -0.029213 0
-0.267359 -0.041561 0
-0.277848 -0.053993 0
-0.286661 -0.066221 0
-0.293365 -0.077883 0
-0.297514 -0.088564 0
-0.298699 -0.097825 0