# vtk DataFile Version 2.0
generated by CFD-lab course output (written by Tobias Neckel) 
ASCII

DATASET STRUCTURED_GRID
DIMENSIONS  51 51 1 
POINTS 2601 float

0.000000 0.000000 0
0.020000 0.000000 0
0.040000 0.000000 0
0.060000 0.000000 0
0.080000 0.000000 0
0.100000 0.000000 0
0.120000 0.000000 0
0.140000 0.000000 0
0.160000 0.000000 0
0.180000 0.000000 0
0.200000 0.000000 0
0.220000 0.000000 0
0.240000 0.000000 0
0.260000 0.000000 0
0.280000 0.000000 0
0.300000 0.000000 0
0.320000 0.000000 0
0.340000 0.000000 0
0.360000 0.000000 0
0.380000 0.000000 0
0.400000 0.000000 0
0.420000 0.000000 0
0.440000 0.000000 0
0.460000 0.000000 0
0.480000 0.000000 0
0.500000 0.000000 0
0.520000 0.000000 0
0.540000 0.000000 0
0.560000 0.000000 0
0.580000 0.000000 0
0.600000 0.000000 0
0.620000 0.000000 0
0.640000 0.000000 0
0.660000 0.000000 0
0.680000 0.000000 0
0.700000 0.000000 0
0.720000 0.000000 0
0.740000 0.000000 0
0.760000 0.000000 0
0.780000 0.000000 0
0.800000 0.000000 0
0.820000 0.000000 0
0.840000 0.000000 0
0.860000 0.000000 0
0.880000 0.000000 0
0.900000 0.000000 0
0.920000 0.000000 0
0.940000 0.000000 0
0.960000 0.000000 0
0.980000 0.000000 0
1.000000 0.000000 0
0.000000 0.020000 0
0.020000 0.020000 0
0.040000 0.020000 0
0.060000 0.020000 0
0.080000 0.020000 0
0.100000 0.020000 0
0.120000 0.020000 0
0.140000 0.020000 0
0.160000 0.020000 0
0.180000 0.020000 0
0.200000 0.020000 0
0.220000 0.020000 0
0.240000 0.020000 0
0.260000 0.020000 0
0.280000 0.020000 0
0.300000 0.020000 0
0.320000 0.020000 0
0.340000 0.020000 0
0.360000 0.020000 0
0.380000 0.020000 0
0.400000 0.020000 0
0.420000 0.020000 0
0.440000 0.020000 0
0.460000 0.020000 0
0.480000 0.020000 0
0.500000 0.020000 0
0.520000 0.020000 0
0.540000 0.020000 0
0.560000 0.020000 0
0.580000 0.020000 0
0.600000 0.020000 0
0.620000 0.020000 0
0.640000 0.020000 0
0.660000 0.020000 0
0.680000 0.020000 0
0.700000 0.020000 0
0.720000 0.020000 0
0.740000 0.020000 0
0.760000 0.020000 0
0.780000 0.020000 0
0.800000 0.020000 0
0.820000 0.020000 0
0.840000 0.020000 0
0.860000 0.020000 0
0.880000 0.020000 0
0.900000 0.020000 0
0.920000 0.020000 0
0.940000 0.020000 0
0.960000 0.020000 0
0.980000 0.020000 0
1.000000 0.020000 0
0.000000 0.040000 0
0.020000 0.040000 0
0.040000 0.040000 0
0.060000 0.040000 0
0.080000 0.040000 0
0.100000 0.040000 0
0.120000 0.040000 0
0.140000 0.040000 0
0.160000 0.040000 0
0.180000 0.040000 0
0.200000 0.040000 0
0.220000 0.040000 0
0.240000 0.040000 0
0.260000 0.040000 0
0.280000 0.040000 0
0.300000 0.040000 0
0.320000 0.040000 0
0.340000 0.040000 0
0.360000 0.040000 0
0.380000 0.040000 0
0.400000 0.040000 0
0.420000 0.040000 0
0.440000 0.040000 0
0.460000 0.040000 0
0.480000 0.040000 0
0.500000 0.040000 0
0.520000 0.040000 0
0.540000 0.040000 0
0.560000 0.040000 0
0.580000 0.040000 0
0.600000 0.040000 0
0.620000 0.040000 0
0.640000 0.040000 0
0.660000 0.040000 0
0.680000 0.040000 0
0.700000 0.040000 0
0.720000 0.040000 0
0.740000 0.040000 0
0.760000 0.040000 0
0.780000 0.040000 0
0.800000 0.040000 0
0.820000 0.040000 0
0.840000 0.040000 0
0.860000 0.040000 0
0.880000 0.040000 0
0.900000 0.040000 0
0.920000 0.040000 0
0.940000 0.040000 0
0.960000 0.040000 0
0.980000 0.040000 0
1.000000 0.040000 0
0.000000 0.060000 0
0.020000 0.060000 0
0.040000 0.060000 0
0.060000 0.060000 0
0.080000 0.060000 0
0.100000 0.060000 0
0.120000 0.060000 0
0.140000 0.060000 0
0.160000 0.060000 0
0.180000 0.060000 0
0.200000 0.060000 0
0.220000 0.060000 0
0.240000 0.060000 0
0.260000 0.060000 0
0.280000 0.060000 0
0.300000 0.060000 0
0.320000 0.060000 0
0.340000 0.060000 0
0.360000 0.060000 0
0.380000 0.060000 0
0.400000 0.060000 0
0.420000 0.060000 0
0.440000 0.060000 0
0.460000 0.060000 0
0.480000 0.060000 0
0.500000 0.060000 0
0.520000 0.060000 0
0.540000 0.060000 0
0.560000 0.060000 0
0.580000 0.060000 0
0.600000 0.060000 0
0.620000 0.060000 0
0.640000 0.060000 0
0.660000 0.060000 0
0.680000 0.060000 0
0.700000 0.060000 0
0.720000 0.060000 0
0.740000 0.060000 0
0.760000 0.060000 0
0.780000 0.060000 0
0.800000 0.060000 0
0.820000 0.060000 0
0.840000 0.060000 0
0.860000 0.060000 0
0.880000 0.060000 0
0.900000 0.060000 0
0.920000 0.060000 0
0.940000 0.060000 0
0.960000 0.060000 0
0.980000 0.060000 0
1.000000 0.060000 0
0.000000 0.080000 0
0.020000 0.080000 0
0.040000 0.080000 0
0.060000 0.080000 0
0.080000 0.080000 0
0.100000 0.080000 0
0.120000 0.080000 0
0.140000 0.080000 0
0.160000 0.080000 0
0.180000 0.080000 0
0.200000 0.080000 0
0.220000 0.080000 0
0.240000 0.080000 0
0.260000 0.080000 0
0.280000 0.080000 0
0.300000 0.080000 0
0.320000 0.080000 0
0.340000 0.080000 0
0.360000 0.080000 0
0.380000 0.080000 0
0.400000 0.080000 0
0.420000 0.080000 0
0.440000 0.080000 0
0.460000 0.080000 0
0.480000 0.080000 0
0.500000 0.080000 0
0.520000 0.080000 0
0.540000 0.080000 0
0.560000 0.080000 0
0.580000 0.080000 0
0.600000 0.080000 0
0.620000 0.080000 0
0.640000 0.080000 0
0.660000 0.080000 0
0.680000 0.080000 0
0.700000 0.080000 0
0.720000 0.080000 0
0.740000 0.080000 0
0.760000 0.080000 0
0.780000 0.080000 0
0.800000 0.080000 0
0.820000 0.080000 0
0.840000 0.080000 0
0.860000 0.080000 0
0.880000 0.080000 0
0.900000 0.080000 0
0.920000 0.080000 0
0.940000 0.080000 0
0.960000 0.080000 0
0.980000 0.080000 0
1.000000 0.080000 0
0.000000 0.100000 0
0.020000 0.100000 0
0.040000 0.100000 0
0.060000 0.100000 0
0.080000 0.100000 0
0.100000 0.100000 0
0.120000 0.100000 0
0.140000 0.100000 0
0.160000 0.100000 0
0.180000 0.100000 0
0.200000 0.100000 0
0.220000 0.100000 0
0.240000 0.100000 0
0.260000 0.100000 0
0.280000 0.100000 0
0.300000 0.100000 0
0.320000 0.100000 0
0.340000 0.100000 0
0.360000 0.100000 0
0.380000 0.100000 0
0.400000 0.100000 0
0.420000 0.100000 0
0.440000 0.100000 0
0.460000 0.100000 0
0.480000 0.100000 0
0.500000 0.100000 0
0.520000 0.100000 0
0.540000 0.100000 0
0.560000 0.100000 0
0.580000 0.100000 0
0.600000 0.100000 0
0.620000 0.100000 0
0.640000 0.100000 0
0.660000 0.100000 0
0.680000 0.100000 0
0.700000 0.100000 0
0.720000 0.100000 0
0.740000 0.100000 0
0.760000 0.100000 0
0.780000 0.100000 0
0.800000 0.100000 0
0.820000 0.100000 0
0.840000 0.100000 0
0.860000 0.100000 0
0.880000 0.100000 0
0.900000 0.100000 0
0.920000 0.100000 0
0.940000 0.100000 0
0.960000 0.100000 0
0.980000 0.100000 0
1.000000 0.100000 0
0.000000 0.120000 0
0.020000 0.120000 0
0.040000 0.120000 0
0.060000 0.120000 0
0.080000 0.120000 0
0.100000 0.120000 0
0.120000 0.120000 0
0.140000 0.120000 0
0.160000 0.120000 0
0.180000 0.120000 0
0.200000 0.120000 0
0.220000 0.120000 0
0.240000 0.120000 0
0.260000 0.120000 0
0.280000 0.120000 0
0.300000 0.120000 0
0.320000 0.120000 0
0.340000 0.120000 0
0.360000 0.120000 0
0.380000 0.120000 0
0.400000 0.120000 0
0.420000 0.120000 0
0.440000 0.120000 0
0.460000 0.120000 0
0.480000 0.120000 0
0.500000 0.120000 0
0.520000 0.120000 0
0.540000 0.120000 0
0.560000 0.120000 0
0.580000 0.120000 0
0.600000 0.120000 0
0.620000 0.120000 0
0.640000 0.120000 0
0.660000 0.120000 0
0.680000 0.120000 0
0.700000 0.120000 0
0.720000 0.120000 0
0.740000 0.120000 0
0.760000 0.120000 0
0.780000 0.120000 0
0.800000 0.120000 0
0.820000 0.120000 0
0.840000 0.120000 0
0.860000 0.120000 0
0.880000 0.120000 0
0.900000 0.120000 0
0.920000 0.120000 0
0.940000 0.120000 0
0.960000 0.120000 0
0.980000 0.120000 0
1.000000 0.120000 0
0.000000 0.140000 0
0.020000 0.140000 0
0.040000 0.140000 0
0.060000 0.140000 0
0.080000 0.140000 0
0.100000 0.140000 0
0.120000 0.140000 0
0.140000 0.140000 0
0.160000 0.140000 0
0.180000 0.140000 0
0.200000 0.140000 0
0.220000 0.140000 0
0.240000 0.140000 0
0.260000 0.140000 0
0.280000 0.140000 0
0.300000 0.140000 0
0.320000 0.140000 0
0.340000 0.140000 0
0.360000 0.140000 0
0.380000 0.140000 0
0.400000 0.140000 0
0.420000 0.140000 0
0.440000 0.140000 0
0.460000 0.140000 0
0.480000 0.140000 0
0.500000 0.140000 0
0.520000 0.140000 0
0.540000 0.140000 0
0.560000 0.140000 0
0.580000 0.140000 0
0.600000 0.140000 0
0.620000 0.140000 0
0.640000 0.140000 0
0.660000 0.140000 0
0.680000 0.140000 0
0.700000 0.140000 0
0.720000 0.140000 0
0.740000 0.140000 0
0.760000 0.140000 0
0.780000 0.140000 0
0.800000 0.140000 0
0.820000 0.140000 0
0.840000 0.140000 0
0.860000 0.140000 0
0.880000 0.140000 0
0.900000 0.140000 0
0.920000 0.140000 0
0.940000 0.140000 0
0.960000 0.140000 0
0.980000 0.140000 0
1.000000 0.140000 0
0.000000 0.160000 0
0.020000 0.160000 0
0.040000 0.160000 0
0.060000 0.160000 0
0.080000 0.160000 0
0.100000 0.160000 0
0.120000 0.160000 0
0.140000 0.160000 0
0.160000 0.160000 0
0.180000 0.160000 0
0.200000 0.160000 0
0.220000 0.160000 0
0.240000 0.160000 0
0.260000 0.160000 0
0.280000 0.160000 0
0.300000 0.160000 0
0.320000 0.160000 0
0.340000 0.160000 0
0.360000 0.160000 0
0.380000 0.160000 0
0.400000 0.160000 0
0.420000 0.160000 0
0.440000 0.160000 0
0.460000 0.160000 0
0.480000 0.160000 0
0.500000 0.160000 0
0.520000 0.160000 0
0.540000 0.160000 0
0.560000 0.160000 0
0.580000 0.160000 0
0.600000 0.160000 0
0.620000 0.160000 0
0.640000 0.160000 0
0.660000 0.160000 0
0.680000 0.160000 0
0.700000 0.160000 0
0.720000 0.160000 0
0.740000 0.160000 0
0.760000 0.160000 0
0.780000 0.160000 0
0.800000 0.160000 0
0.820000 0.160000 0
0.840000 0.160000 0
0.860000 0.160000 0
0.880000 0.160000 0
0.900000 0.160000 0
0.920000 0.160000 0
0.940000 0.160000 0
0.960000 0.160000 0
0.980000 0.160000 0
1.000000 0.160000 0
0.000000 0.180000 0
0.020000 0.180000 0
0.040000 0.180000 0
0.060000 0.180000 0
0.080000 0.180000 0
0.100000 0.180000 0
0.120000 0.180000 0
0.140000 0.180000 0
0.160000 0.180000 0
0.180000 0.180000 0
0.200000 0.180000 0
0.220000 0.180000 0
0.240000 0.180000 0
0.260000 0.180000 0
0.280000 0.180000 0
0.300000 0.180000 0
0.320000 0.180000 0
0.340000 0.180000 0
0.360000 0.180000 0
0.380000 0.180000 0
0.400000 0.180000 0
0.420000 0.180000 0
0.440000 0.180000 0
0.460000 0.180000 0
0.480000 0.180000 0
0.500000 0.180000 0
0.520000 0.180000 0
0.540000 0.180000 0
0.560000 0.180000 0
0.580000 0.180000 0
0.600000 0.180000 0
0.620000 0.180000 0
[...]
POINT_DATA 2601 

VECTORS velocity float
0.000000 0.000000 0
-0.000001 0.000000 0
-0.000005 0.000000 0
-0.000008 0.000000 0
-0.000012 0.000000 0
-0.000016 0.000000 0
-0.000021 0.000000 0
-0.000023 0.000000 0
-0.000023 0.000000 0
-0.000021 0.000000 0
-0.000017 0.000000 0
-0.000010 0.000000 0
-0.000002 0.000000 0
0.000005 0.000000 0
0.000010 0.000000 0
0.000012 0.000000 0
0.000013 0.000000 0
0.000012 0.000000 0
0.000011 0.000000 0
0.000009 0.000000 0
0.000007 0.000000 0
0.000005 0.000000 0
0.000003 0.000000 0
0.000001 0.000000 0
-0.000000 0.000000 0
-0.000001 0.000000 0
-0.000001 0.000000 0
-0.000000 0.000000 0
0.000000 0.000000 0
0.000000 0.000000 0
0.000000 0.000000 0
0.000000 0.000000 0
0.000000 0.000000 0
0.000000 0.000000 0
0.000000 0.000000 0
0.000000 0.000000 0
0.000001 0.000000 0
0.000001 0.000000 0
0.000001 0.000000 0
0.000001 0.000000 0
0.000001 0.000000 0
0.000001 0.000000 0
0.000001 0.000000 0
0.000001 0.000000 0
0.000001 0.000000 0
0.000001 0.000000 0
0.000001 0.000000 0
0.000000 0.000000 0
0.000000 0.000000 0
0.000000 0.000000 0
0.000000 0.000000 0
0.000000 0.000001 0
-0.008494 0.006961 0
-0.020025 0.006101 0
-0.026386 0.001466 0
-0.026931 -0.003199 0
-0.022326 -0.007767 0
-0.012669 -0.012302 0
0.001982 -0.016036 0
0.021233 -0.018540 0
0.043821 -0.019363 0
0.068000 -0.018079 0
0.091977 -0.014921 0
0.113479 -0.010363 0
0.130423 -0.005328 0
0.141347 -0.000859 0
0.145653 0.002569 0
0.143790 0.005161 0
0.137132 0.007222 0
0.126788 0.008955 0
0.113591 0.010445 0
0.098254 0.011664 0
0.081496 0.012482 0
0.064121 0.012720 0
0.047020 0.012223 0
0.031111 0.010935 0
0.017243 0.008928 0
0.006117 0.006372 0
-0.001747 0.003648 0
-0.006116 0.001511 0
-0.008019 0.000329 0
-0.008595 -0.000170 0
-0.008598 -0.000295 0
-0.008422 -0.000264 0
-0.008234 -0.000191 0
-0.008086 -0.000126 0
-0.007973 -0.000088 0
-0.007868 -0.000080 0
-0.007733 -0.000101 0
-0.007533 -0.000145 0
-0.007239 -0.000206 0
-0.006828 -0.000279 0
-0.006289 -0.000356 0
-0.005621 -0.000430 0
-0.004838 -0.000493 0
-0.003965 -0.000537 0
-0.003041 -0.000553 0
-0.002121 -0.000529 0
-0.001273 -0.000454 0
-0.000580 -0.000316 0
-0.000133 -0.000125 0
0.000000 0.000000 0
0.000000 0.000004 0
-0.012359 0.020024 0
-0.028645 0.017890 0
-0.039204 0.006904 0
-0.043156 -0.004060 0
-0.041521 -0.014263 0
-0.034868 -0.024310 0
-0.023237 -0.033903 0
-0.006341 -0.041840 0
0.015530 -0.046768 0
0.042159 -0.048157 0
0.072160 -0.045480 0
0.103547 -0.038448 0
0.133500 -0.027869 0
0.158841 -0.015230 0
0.176374 -0.002443 0
0.184269 0.008520 0
0.182257 0.017002 0
0.172490 0.023541 0
0.156901 0.028533 0
0.137238 0.032095 0
0.115129 0.034133 0
0.092079 0.034475 0
0.069425 0.033009 0
0.048287 0.029778 0
0.029562 0.024994 0
0.013939 0.018990 0
0.001923 0.012233 0
-0.006076 0.006272 0
-0.010315 0.002479 0
-0.012282 0.000580 0
-0.013067 -0.000173 0
-0.013315 -0.000364 0
-0.013350 -0.000336 0
-0.013311 -0.000261 0
-0.013235 -0.000218 0
-0.013111 -0.000240 0
-0.012903 -0.000334 0
-0.012565 -0.000494 0
-0.012061 -0.000705 0
-0.011362 -0.000950 0
-0.010454 -0.001206 0
-0.009343 -0.001450 0
-0.008053 -0.001656 0
-0.006628 -0.001797 0
-0.005132 -0.001844 0
-0.003648 -0.001768 0
-0.002276 -0.001540 0
-0.001128 -0.001140 0
-0.000327 -0.000580 0
0.000000 0.000000 0
0.000000 0.000007 0
-0.013280 0.035605 0
-0.031735 0.032945 0
-0.045191 0.015976 0
-0.052479 -0.000883 0
-0.054580 -0.016056 0
-0.052378 -0.030586 0
-0.046120 -0.044563 0
-0.035831 -0.057307 0
-0.021004 -0.067864 0
-0.001092 -0.074710 0
0.023891 -0.076310 0
0.053492 -0.071703 0
0.085786 -0.060622 0
0.118192 -0.043733 0
0.146791 -0.022859 0
0.167724 -0.000723 0
0.177477 0.019000 0
0.175666 0.034311 0
0.164751 0.045697 0
0.147333 0.053436 0
0.125950 0.057640 0
0.102835 0.058423 0
0.079756 0.056015 0
0.058001 0.050798 0
0.038452 0.043276 0
0.021683 0.034010 0
0.008033 0.023664 0
-0.002351 0.013750 0
-0.008884 0.006534 0
-0.012423 0.002582 0
-0.014237 0.000738 0
-0.015138 0.000019 0
-0.015578 -0.000194 0
-0.015776 -0.000240 0
-0.015820 -0.000287 0
-0.015728 -0.000413 0
-0.015479 -0.000647 0
-0.015042 -0.000986 0
-0.014383 -0.001410 0
-0.013485 -0.001886 0
-0.012344 -0.002375 0
-0.010977 -0.002831 0
-0.009422 -0.003209 0
-0.007736 -0.003458 0
-0.005993 -0.003532 0
-0.004283 -0.003385 0
-0.002708 -0.002973 0
-0.001379 -0.002265 0
-0.000421 -0.001253 0
0.000000 0.000000 0
0.000000 0.000009 0
-0.012536 0.051759 0
-0.031623 0.049801 0
-0.046946 0.027648 0
-0.056610 0.005328 0
-0.061501 -0.014365 0
-0.062554 -0.032770 0
-0.060195 -0.050451 0
-0.054495 -0.066955 0
-0.045325 -0.081507 0
-0.032454 -0.093053 0
-0.015203 -0.100064 0
0.006903 -0.100342 0
0.033978 -0.092569 0
0.064579 -0.076236 0
0.095935 -0.051975 0
0.124371 -0.022166 0
0.145188 0.009059 0
0.153427 0.036266 0
0.150515 0.056867 0
0.139217 0.070896 0
0.122522 0.078631 0
0.103056 0.080669 0
0.082820 0.077843 0
0.063207 0.071082 0
0.045116 0.061313 0
0.029080 0.049408 0
0.015352 0.036267 0
0.004002 0.023189 0
-0.004536 0.012551 0
-0.009791 0.005934 0
-0.012757 0.002542 0
-0.014394 0.000977 0
-0.015291 0.000302 0
-0.015755 -0.000019 0
-0.015929 -0.000267 0
-0.015870 -0.000581 0
-0.015584 -0.001020 0
-0.015060 -0.001590 0
-0.014286 -0.002262 0
-0.013265 -0.002989 0
-0.012013 -0.003714 0
-0.010565 -0.004371 0
-0.008969 -0.004897 0
-0.007290 -0.005226 0
-0.005598 -0.005296 0
-0.003974 -0.005053 0
-0.002502 -0.004445 0
-0.001271 -0.003427 0
-0.000387 -0.001959 0
0.000000 0.000001 0
0.000000 0.000010 0
-0.010807 0.067228 0
-0.029404 0.067355 0
-0.045816 0.040962 0
-0.057088 0.013671 0
-0.064027 -0.010112 0
-0.067507 -0.031892 0
-0.068231 -0.052622 0
-0.066334 -0.072178 0
-0.061762 -0.089905 0
-0.054345 -0.104832 0
-0.043797 -0.115667 0
-0.029599 -0.120885 0
-0.010770 -0.118298 0
0.012728 -0.105690 0
0.040694 -0.082652 0
0.070280 -0.049976 0
0.096859 -0.010055 0
0.115050 0.028984 0
0.120432 0.059906 0
0.117060 0.081428 0
0.107729 0.093801 0
0.094769 0.098126 0
0.079963 0.095864 0
0.064645 0.088501 0
0.049738 0.077402 0
0.035822 0.063775 0
0.023194 0.048742 0
0.011997 0.033637 0
0.002460 0.020327 0
-0.004529 0.010803 0
-0.008863 0.005341 0
-0.011361 0.002554 0
-0.012773 0.001166 0
-0.013521 0.000398 0
-0.013826 -0.000172 0
-0.013791 -0.000758 0
-0.013468 -0.001457 0
-0.012878 -0.002284 0
-0.012043 -0.003205 0
-0.010991 -0.004159 0
-0.009765 -0.005075 0
-0.008414 -0.005875 0
-0.006994 -0.006483 0
-0.005563 -0.006829 0
-0.004179 -0.006848 0
-0.002900 -0.006481 0
-0.001781 -0.005676 0
-0.000879 -0.004379 0
-0.000256 -0.002525 0
0.000000 0.000001 0
0.000000 0.000010 0
-0.008534 0.081162 0
-0.025759 0.084809 0
-0.042698 0.055332 0
-0.055143 0.023540 0
-0.063546 -0.003947 0
-0.068906 -0.028566 0
-0.072140 -0.051624 0
-0.073525 -0.073425 0
-0.073103 -0.093496 0
-0.070742 -0.111017 0
-0.066125 -0.124810 0
-0.058786 -0.133370 0
-0.048205 -0.134895 0
-0.033401 -0.127700 0
-0.013482 -0.109528 0
0.010976 -0.078331 0
0.038665 -0.035712 0
0.065686 0.012693 0
0.078669 0.054857 0
0.084124 0.083599 0
0.083731 0.100922 0
0.079190 0.108434 0
0.071691 0.107967 0
0.062340 0.101307 0
0.052028 0.090137 0
0.041409 0.075952 0
0.030903 0.060092 0
0.020780 0.043923 0
0.011379 0.029078 0
0.003372 0.017258 0
-0.002388 0.009374 0
-0.006021 0.004887 0
-0.008114 0.002462 0
-0.009237 0.001033 0
-0.009728 0.000004 0
-0.009760 -0.000938 0
-0.009444 -0.001933 0
-0.008854 -0.003015 0
-0.008052 -0.004149 0
-0.007102 -0.005267 0
-0.006063 -0.006291 0
-0.004997 -0.007143 0
-0.003954 -0.007748 0
-0.002977 -0.008040 0
-0.002101 -0.007959 0
-0.001354 -0.007451 0
-0.000759 -0.006466 0
-0.000330 -0.004952 0
-0.000078 -0.002838 0
0.000000 0.000002 0
0.000000 0.000010 0
-0.006057 0.092987 0
-0.021174 0.101520 0
-0.038146 0.070346 0
-0.051488 0.034519 0
-0.060980 0.003651 0
-0.067850 -0.023299 0
-0.073088 -0.048004 0
-0.077209 -0.071215 0
-0.080392 -0.092688 0
-0.082618 -0.111811 0
-0.083640 -0.127624 0
-0.082962 -0.138805 0
-0.079851 -0.143684 0
-0.073362 -0.140413 0
-0.062736 -0.127029 0
-0.046680 -0.102124 0
-0.024233 -0.064766 0
0.002719 -0.011020 0
0.028872 0.041469 0
0.044623 0.076365 0
0.053362 0.098735 0
0.057867 0.110167 0
0.058566 0.112714 0
0.056225 0.108164 0
0.051563 0.098333 0
0.045245 0.084900 0
0.037796 0.069371 0
0.029645 0.053161 0
0.021236 0.037735 0
0.013273 0.024569 0
0.006629 0.014735 0
0.001855 0.008280 0
-0.001164 0.004382 0
-0.002900 0.002012 0
-0.003755 0.000351 0
-0.003998 -0.001042 0
-0.003818 -0.002363 0
-0.003366 -0.003676 0
-0.002755 -0.004957 0
-0.002079 -0.006148 0
-0.001414 -0.007179 0
-0.000816 -0.007984 0
-0.000323 -0.008503 0
0.000044 -0.008682 0
0.000280 -0.008471 0
0.000385 -0.007824 0
0.000372 -0.006700 0
0.000262 -0.005060 0
0.000107 -0.002855 0
0.000000 0.000002 0
0.000000 0.000010 0
-0.003656 0.102336 0
-0.016046 0.116898 0
-0.032527 0.085646 0
-0.046604 0.046374 0
-0.057029 0.012415 0
-0.065190 -0.016459 0
-0.072011 -0.042266 0
-0.078368 -0.066121 0
-0.084565 -0.088089 0
-0.090711 -0.107770 0
-0.096696 -0.124466 0
-0.102131 -0.137159 0
-0.106281 -0.144495 0
-0.108032 -0.144815 0
-0.106013 -0.136211 0
-0.098609 -0.116835 0
-0.084640 -0.085111 0
-0.063096 -0.040412 0
-0.029844 0.012953 0
-0.001425 0.059110 0
0.018693 0.087679 0
0.032732 0.103230 0
0.041536 0.109608 0
0.046489 0.108309 0
0.048053 0.101116 0
0.046778 0.089720 0
0.043196 0.075693 0
0.037853 0.060482 0
0.031275 0.045449 0
0.024200 0.031865 0
0.017540 0.020792 0
0.012090 0.012681 0
0.008140 0.007217 0
0.005577 0.003624 0
0.004092 0.001102 0
0.003366 -0.000875 0
0.003164 -0.002565 0
0.003244 -0.004079 0
0.003438 -0.005436 0
0.003625 -0.006608 0
0.003726 -0.007554 0
0.003693 -0.008233 0
0.003507 -0.008608 0
0.003170 -0.008643 0
0.002701 -0.008300 0
0.002125 -0.007542 0
0.001482 -0.006342 0
0.000830 -0.004687 0
0.000277 -0.002576 0
0.000000 0.000002 0
0.000000 0.000010 0
-0.001558 0.109033 0
-0.010746 0.130390 0
-0.026150 0.100904 0
-0.040849 0.059022 0
-0.052205 0.022237 0
-0.061444 -0.008318 0
-0.069603 -0.034826 0
-0.077816 -0.058661 0
-0.086508 -0.080346 0
-0.095882 -0.099680 0
-0.105944 -0.116203 0
-0.116447 -0.129220 0
-0.126795 -0.137783 0
-0.135947 -0.140681 0
-0.142345 -0.136452 0
-0.143863 -0.123497 0
-0.138014 -0.100279 0
-0.122063 -0.065817 0
-0.093792 -0.020202 0
-0.055538 0.027829 0
-0.021567 0.064579 0
0.003429 0.087323 0
0.021469 0.098956 0
0.033639 0.101648 0
0.041492 0.098045 0
0.045645 0.089757 0
0.046520 0.078296 0
0.044704 0.065082 0
0.040711 0.051388 0
0.035324 0.038305 0
0.029466 0.026844 0
0.023989 0.017680 0
0.019447 0.010895 0
0.016058 0.006060 0
0.013736 0.002562 0
0.012234 -0.000114 0
0.011296 -0.002241 0
0.010682 -0.003949 0
0.010178 -0.005338 0
0.009645 -0.006436 0
0.009001 -0.007247 0
0.008208 -0.007765 0
0.007263 -0.007981 0
0.006181 -0.007876 0
0.004995 -0.007426 0
0.003749 -0.006604 0
0.002500 -0.005405 0
0.001338 -0.003855 0
0.000422 -0.002024 0
0.000000 0.000002 0
0.000000 0.000009 0
0.000060 0.113082 0
-0.005631 0.141489 0
-0.019287 0.115749 0
-0.034399 0.072429 0
-0.046687 0.033010 0
-0.056849 0.000938 0
-0.066338 -0.025894 0
-0.076157 -0.049216 0
-0.086940 -0.070023 0
-0.098935 -0.088335 0
-0.112197 -0.103901 0
-0.126561 -0.116308 0
-0.141566 -0.124995 0
-0.156344 -0.129266 0
-0.169499 -0.128296 0
-0.178971 -0.121166 0
-0.182017 -0.106912 0
-0.175316 -0.084635 0
-0.155531 -0.053571 0
-0.120106 -0.013115 0
-0.075597 0.028712 0
-0.034900 0.060194 0
-0.004270 0.079398 0
0.017616 0.088286 0
0.032092 0.089110 0
0.041769 0.084692 0
0.047384 0.076634 0
0.049622 0.066292 0
0.048798 0.054829 0
0.045784 0.043109 0
0.041492 0.032127 0
0.036692 0.022700 0
0.032030 0.015148 0
0.027992 0.009336 0
0.024777 0.004925 0
0.022298 0.001564 0
0.020318 -0.001013 0
0.018662 -0.002961 0
0.017166 -0.004399 0
0.015685 -0.005430 0
0.014139 -0.006117 0
0.012492 -0.006495 0
0.010744 -0.006580 0
0.008916 -0.006376 0
0.007045 -0.005869 0
0.005178 -0.005047 0
0.003382 -0.003931 0
0.001769 -0.002610 0
0.000540 -0.001237 0
0.000000 0.000002 0
0.000000 0.000009 0
0.001253 0.114663 0
-0.001063 0.149737 0
-0.012231 0.129672 0
-0.027359 0.086421 0
-0.040567 0.044688 0
-0.051674 0.011333 0
-0.062528 -0.015519 0
-0.073776 -0.038059 0
-0.086335 -0.057569 0
-0.100461 -0.074423 0
-0.116173 -0.088577 0
-0.133294 -0.099852 0
-0.151408 -0.108000 0
-0.169792 -0.112748 0
-0.187325 -0.113826 0
-0.202401 -0.110980 0
-0.212862 -0.103934 0
-0.216011 -0.092302 0
-0.208755 -0.075412 0
-0.187833 -0.052104 0
-0.150139 -0.020628 0
-0.101514 0.015994 0
-0.052176 0.046441 0
-0.011531 0.065286 0
0.016664 0.073891 0
0.034550 0.074465 0
0.045539 0.070444 0
0.052272 0.063668 0
0.054906 0.055226 0
0.054755 0.045611 0
0.052669 0.035935 0
0.049145 0.027142 0
0.044803 0.019595 0
0.040396 0.013312 0
0.036390 0.008257 0
0.032867 0.004345 0
0.029709 0.001395 0
0.026791 -0.000798 0
0.024048 -0.002361 0
0.021424 -0.003408 0
0.018858 -0.004053 0
0.016306 -0.004371 0
0.013757 -0.004405 0
0.011227 -0.004177 0
0.008743 -0.003688 0
0.006344 -0.002941 0
0.004093 -0.001996 0
0.002115 -0.001014 0
0.000634 -0.000255 0
0.000000 0.000002 0
0.000000 0.000009 0
0.002180 0.114145 0
0.002649 0.154973 0
-0.005343 0.142045 0
-0.019922 0.100765 0
-0.034019 0.057325 0
-0.046084 0.022899 0
-0.058045 -0.003793 0
-0.070777 -0.025409 0
-0.084910 -0.043338 0
-0.100779 -0.058497 0
-0.118337 -0.071067 0
-0.137331 -0.081073 0
-0.157317 -0.088498 0
-0.177636 -0.093349 0
-0.197403 -0.095687 0
-0.215492 -0.095629 0
-0.230536 -0.093302 0
-0.240922 -0.088742 0
-0.244755 -0.081748 0
-0.239738 -0.071730 0
-0.222989 -0.057608 0
-0.190845 -0.037769 0
-0.144075 -0.010585 0
-0.091157 0.019446 0
-0.039459 0.043029 0
0.002622 0.055816 0
0.031501 0.058912 0
0.048298 0.056925 0
0.056418 0.052346 0
0.060305 0.045346 0
0.061291 0.037737 0
0.059556 0.030567 0
0.055861 0.023897 0
0.051443 0.017748 0
0.046953 0.012453 0
0.042523 0.008245 0
0.038193 0.005064 0
0.034018 0.002701 0
0.030047 0.000969 0
0.026291 -0.000241 0
0.022717 -0.001000 0
0.019297 -0.001394 0
0.016023 -0.001501 0
0.012899 -0.001361 0
0.009932 -0.000985 0
0.007143 -0.000397 0
0.004583 0.000298 0
0.002365 0.000849 0
0.000713 0.000878 0
0.000000 0.000002 0
0.000000 0.000009 0
0.002864 0.112013 0
0.005404 0.157260 0
0.000942 0.152243 0
-0.012341 0.115097 0
-0.027145 0.070849 0
-0.040094 0.035360 0
-0.052839 0.009175 0
-0.067055 -0.011194 0
-0.082682 -0.027567 0
-0.099981 -0.040996 0
-0.118890 -0.052024 0
-0.139083 -0.060872 0
-0.160074 -0.067695 0
-0.181240 -0.072661 0
-0.201861 -0.075970 0
-0.221149 -0.077847 0
-0.238284 -0.078504 0
-0.252438 -0.078083 0
-0.262733 -0.076596 0
-0.268133 -0.073871 0
-0.267252 -0.069521 0
-0.258134 -0.062919 0
-0.238018 -0.053247 0
-0.203626 -0.039330 0
-0.157136 -0.019888 0
-0.105036 0.003506 0
-0.054150 0.024768 0
-0.010756 0.038751 0
0.022838 0.043220 0
0.044170 0.040738 0
0.055401 0.036685 0
0.059407 0.032571 0
0.058670 0.027708 0
0.055993 0.022221 0
0.052330 0.017177 0
0.047834 0.013105 0
0.042889 0.009900 0
0.037937 0.007349 0
0.033229 0.005366 0
0.028775 0.003922 0
0.024558 0.002941 0
0.020593 0.002324 0
0.016894 0.001994 0
0.013463 0.001913 0
0.010287 0.002068 0
0.007368 0.002409 0
0.004737 0.002783 0
0.002478 0.002856 0
0.000775 0.002110 0
0.000000 0.000002 0
0.000000 0.000009 0
0.003321 0.108741 0
0.007317 0.156895 0
0.006039 0.159790 0
-0.004856 0.128852 0
-0.020072 0.085078 0
-0.033885 0.048594 0
-0.047253 0.023169 0
-0.062296 0.004434 0
-0.079331 -0.010413 0
-0.097937 -0.022289 0
-0.117814 -0.031966 0
-0.138705 -0.039889 0
-0.160130 -0.046341 0
-0.181517 -0.051562 0
-0.202295 -0.055778 0
-0.221907 -0.059205 0
-0.239833 -0.062012 0
-0.255607 -0.064293 0
-0.268805 -0.066054 0
-0.278996 -0.067212 0
-0.285676 -0.067606 0
-0.288176 -0.067004 0
-0.285558 -0.065094 0
-0.276548 -0.061435 0
-0.259250 -0.055561 0
-0.231312 -0.047169 0
-0.192616 -0.035367 0
-0.147206 -0.020063 0
-0.100171 -0.002581 0
-0.057629 0.012783 0
-0.022411 0.022500 0
0.005001 0.027298 0
0.024093 0.027311 0
0.034399 0.024088 0
0.038405 0.020613 0
0.038397 0.017686 0
0.036134 0.014961 0
0.032885 0.012361 0
0.029327 0.010131 0
0.025625 0.008430 0
0.021922 0.007182 0
0.018359 0.006270 0
0.015022 0.005629 0
0.011950 0.005245 0
0.009131 0.005110 0
0.006567 0.005154 0
0.004277 0.005188 0
0.002309 0.004811 0
0.000774 0.003355 0
0.000000 0.000001 0
0.000000 0.000009 0
0.003585 0.104696 0
0.008541 0.154542 0
0.009646 0.164417 0
0.002053 0.141208 0
-0.012993 0.099877 0
-0.027699 0.062540 0
-0.041681 0.037586 0
-0.056997 0.020884 0
-0.074596 0.008073 0
-0.094013 -0.002513 0
-0.114704 -0.011256 0
-0.136086 -0.018556 0
-0.157635 -0.024883 0
-0.178914 -0.030496 0
-0.199531 -0.035579 0
-0.219121 -0.040308 0
-0.237337 -0.044803 0
-0.253890 -0.049111 0
-0.268516 -0.053207 0
-0.280945 -0.057001 0
-0.290898 -0.060340 0
-0.298078 -0.063036 0
-0.302163 -0.064875 0
-0.302770 -0.065638 0
-0.299376 -0.065123 0
-0.291368 -0.063128 0
-0.278132 -0.059338 0
-0.258321 -0.053694 0
-0.231275 -0.046357 0
-0.196982 -0.037022 0
-0.159153 -0.025944 0
-0.121189 -0.013932 0
-0.085807 -0.001691 0
-0.055955 0.007908 0
-0.032570 0.013179 0
-0.015101 0.015376 0
-0.003025 0.015412 0
0.004326 0.014156 0
0.007999 0.012626 0
0.009390 0.011327 0
0.009417 0.010207 0
0.008705 0.009224 0
0.007617 0.008403 0
0.006381 0.007804 0
0.005086 0.007451 0
0.003811 0.007263 0
0.002619 0.007040 0
0.001541 0.006359 0
0.000601 0.004419 0
0.000000 0.000001 0
0.000000 0.000009 0
0.003690 0.100200 0
0.009193 0.150834 0
0.011966 0.166277 0
0.007585 0.151492 0
-0.006086 0.114830 0
-0.021628 0.077281 0
-0.036375 0.052466 0
-0.051995 0.037349 0
-0.069461 0.026603 0
-0.088730 0.017819 0
-0.109301 0.010108 0
-0.130525 0.003042 0
-0.151950 -0.003512 0
-0.173164 -0.009665 0
-0.193725 -0.015570 0
-0.213261 -0.021399 0
-0.231571 -0.027243 0
-0.248546 -0.033112 0
-0.264045 -0.038998 0
-0.277862 -0.044830 0
-0.289764 -0.050472 0
-0.299474 -0.055739 0
-0.306705 -0.060402 0
-0.311180 -0.064221 0
-0.312647 -0.066962 0
-0.310913 -0.068414 0
-0.305810 -0.068414 0
-0.297084 -0.066919 0
-0.284694 -0.063920 0
-0.268670 -0.059339 0
-0.248696 -0.053292 0
-0.224937 -0.046048 0
-0.197662 -0.037923 0
-0.167492 -0.029149 0
-0.137316 -0.020241 0
-0.109112 -0.011859 0
-0.084158 -0.004467 0
-0.063187 0.001337 0
-0.046344 0.005068 0
-0.033197 0.007012 0
-0.023189 0.007867 0
-0.015806 0.008070 0
-0.010533 0.007954 0
-0.006901 0.007776 0
-0.004367 0.007679 0
-0.002564 0.007622 0
-0.001268 0.007459 0
-0.000384 0.006829 0
0.000049 0.004896 0
0.000000 -0.000000 0
0.000000 0.000009 0
0.003668 0.095503 0
0.009397 0.146265 0
0.013246 0.166024 0
0.011336 0.159260 0
0.000325 0.129090 0
-0.015744 0.092829 0
-0.031283 0.067953 0
-0.047252 0.053970 0
-0.064611 0.044809 0
-0.083310 0.037328 0
-0.102942 0.030539 0
-0.123201 0.024092 0
-0.143768 0.017756 0
-0.164280 0.011279 0
-0.184399 0.004518 0
-0.203853 -0.002462 0
-0.222419 -0.009518 0
-0.239822 -0.016636 0
-0.255884 -0.023891 0
-0.270598 -0.031282 0
-0.283845 -0.038728 0
-0.295383 -0.046094 0
-0.304902 -0.053170 0
-0.312072 -0.059696 0
-0.316569 -0.065389 0
-0.318120 -0.069964 0
-0.316523 -0.073167 0
-0.311683 -0.074810 0
-0.303676 -0.074771 0
-0.292663 -0.073019 0
-0.278807 -0.069678 0
-0.262412 -0.064966 0
-0.243806 -0.059136 0
-0.223387 -0.052438 0
-0.201391 -0.045200 0
-0.178345 -0.037782 0
-0.154756 -0.030513 0
-0.131281 -0.023658 0
-0.108783 -0.017364 0
-0.088233 -0.011828 0
-0.070057 -0.007184 0
-0.054420 -0.003432 0
-0.041245 -0.000502 0
-0.030337 0.001638 0
-0.021405 0.003114 0
-0.014166 0.004164 0
-0.008408 0.004860 0
-0.004031 0.005042 0
-0.001111 0.004036 0
0.000000 -0.000002 0
0.000000 0.000009 0
0.003549 0.090803 0
0.009260 0.141256 0
0.013703 0.164338 0
0.013573 0.164413 0
0.005541 0.141911 0
-0.010137 0.108889 0
-0.026291 0.083974 0
-0.042544 0.070677 0
-0.059692 0.062661 0
-0.077799 0.056150 0
-0.096564 0.049999 0
-0.115692 0.043868 0
-0.134909 0.037567 0
-0.154031 0.030966 0
-0.172977 0.024002 0
-0.191664 0.016622 0
-0.209899 0.008727 0
-0.227415 0.000353 0
-0.243986 -0.008221 0
-0.259376 -0.016869 0
-0.273440 -0.025688 0
-0.286191 -0.034681 0
-0.297388 -0.043713 0
-0.306703 -0.052554 0
-0.313758 -0.060913 0
-0.318180 -0.068459 0
-0.319636 -0.074851 0
-0.317881 -0.079766 0