# vtk DataFile Version 2.0
generated by CFD-lab course output (written by Tobias Neckel) 
ASCII

DATASET STRUCTURED_GRID
DIMENSIONS  51 51 1 
POINTS 2601 float

0.000000 0.000000 0
0.020000 0.000000 0
0.040000 0.000000 0
0.060000 0.000000 0
0.080000 0.000000 0
0.100000 0.000000 0
0.120000 0.000000 0
0.140000 0.000000 0
0.160000 0.000000 0
0.180000 0.000000 0
0.200000 0.000000 0
0.220000 0.000000 0
0.240000 0.000000 0
0.260000 0.000000 0
0.280000 0.000000 0
0.300000 0.000000 0
0.320000 0.000000 0
0.340000 0.000000 0
0.360000 0.000000 0
0.380000 0.000000 0
0.400000 0.000000 0
0.420000 0.000000 0
0.440000 0.000000 0
0.460000 0.000000 0
0.480000 0.000000 0
0.500000 0.000000 0
0.520000 0.000000 0
0.540000 0.000000 0
0.560000 0.000000 0
0.580000 0.000000 0
0.600000 0.000000 0
0.620000 0.000000 0
0.640000 0.000000 0
0.660000 0.000000 0
0.680000 0.000000 0
0.700000 0.000000 0
0.720000 0.000000 0
0.740000 0.000000 0
0.760000 0.000000 0
0.780000 0.000000 0
0.800000 0.000000 0
0.820000 0.000000 0
0.840000 0.000000 0
0.860000 0.000000 0
0.880000 0.000000 0
0.900000 0.000000 0
0.920000 0.000000 0
0.940000 0.000000 0
0.960000 0.000000 0
0.980000 0.000000 0
1.000000 0.000000 0
0.000000 0.020000 0
0.020000 0.020000 0
0.040000 0.020000 0
0.060000 0.020000 0
0.080000 0.020000 0
0.100000 0.020000 0
0.120000 0.020000 0
0.140000 0.020000 0
0.160000 0.020000 0
0.180000 0.020000 0
0.200000 0.020000 0
0.220000 0.020000 0
0.240000 0.020000 0
0.260000 0.020000 0
0.280000 0.020000 0
0.300000 0.020000 0
0.320000 0.020000 0
0.340000 0.020000 0
0.360000 0.020000 0
0.380000 0.020000 0
0.400000 0.020000 0
0.420000 0.020000 0
0.440000 0.020000 0
0.460000 0.020000 0
0.480000 0.020000 0
0.500000 0.020000 0
0.520000 0.020000 0
0.540000 0.020000 0
0.560000 0.020000 0
0.580000 0.020000 0
0.600000 0.020000 0
0.620000 0.020000 0
0.640000 0.020000 0
0.660000 0.020000 0
0.680000 0.020000 0
0.700000 0.020000 0
0.720000 0.020000 0
0.740000 0.020000 0
0.760000 0.020000 0
0.780000 0.020000 0
0.800000 0.020000 0
0.820000 0.020000 0
0.840000 0.020000 0
0.860000 0.020000 0
0.880000 0.020000 0
0.900000 0.020000 0
0.920000 0.020000 0
0.940000 0.020000 0
0.960000 0.020000 0
0.980000 0.020000 0
1.000000 0.020000 0
0.000000 0.040000 0
0.020000 0.040000 0
0.040000 0.040000 0
0.060000 0.040000 0
0.080000 0.040000 0
0.100000 0.040000 0
0.120000 0.040000 0
0.140000 0.040000 0
0.160000 0.040000 0
0.180000 0.040000 0
0.200000 0.040000 0
0.220000 0.040000 0
0.240000 0.040000 0
0.260000 0.040000 0
0.280000 0.040000 0
0.300000 0.040000 0
0.320000 0.040000 0
0.340000 0.040000 0
0.360000 0.040000 0
0.380000 0.040000 0
0.400000 0.040000 0
0.420000 0.040000 0
0.440000 0.040000 0
0.460000 0.040000 0
0.480000 0.040000 0
0.500000 0.040000 0
0.520000 0.040000 0
0.540000 0.040000 0
0.560000 0.040000 0
0.580000 0.040000 0
0.600000 0.040000 0
0.620000 0.040000 0
0.640000 0.040000 0
0.660000 0.040000 0
0.680000 0.040000 0
0.700000 0.040000 0
0.720000 0.040000 0
0.740000 0.040000 0
0.760000 0.040000 0
0.780000 0.040000 0
0.800000 0.040000 0
0.820000 0.040000 0
0.840000 0.040000 0
0.860000 0.040000 0
0.880000 0.040000 0
0.900000 0.040000 0
0.920000 0.040000 0
0.940000 0.040000 0
0.960000 0.040000 0
0.980000 0.040000 0
1.000000 0.040000 0
0.000000 0.060000 0
0.020000 0.060000 0
0.040000 0.060000 0
0.060000 0.060000 0
0.080000 0.060000 0
0.100000 0.060000 0
0.120000 0.060000 0
0.140000 0.060000 0
0.160000 0.060000 0
0.180000 0.060000 0
0.200000 0.060000 0
0.220000 0.060000 0
0.240000 0.060000 0
0.260000 0.060000 0
0.280000 0.060000 0
0.300000 0.060000 0
0.320000 0.060000 0
0.340000 0.060000 0
0.360000 0.060000 0
0.380000 0.060000 0
0.400000 0.060000 0
0.420000 0.060000 0
0.440000 0.060000 0
0.460000 0.060000 0
0.480000 0.060000 0
0.500000 0.060000 0
0.520000 0.060000 0
0.540000 0.060000 0
0.560000 0.060000 0
0.580000 0.060000 0
0.600000 0.060000 0
0.620000 0.060000 0
0.640000 0.060000 0
0.660000 0.060000 0
0.680000 0.060000 0
0.700000 0.060000 0
0.720000 0.060000 0
0.740000 0.060000 0
0.760000 0.060000 0
0.780000 0.060000 0
0.800000 0.060000 0
0.820000 0.060000 0
0.840000 0.060000 0
0.860000 0.060000 0
0.880000 0.060000 0
0.900000 0.060000 0
0.920000 0.060000 0
0.940000 0.060000 0
0.960000 0.060000 0
0.980000 0.060000 0
1.000000 0.060000 0
0.000000 0.080000 0
0.020000 0.080000 0
0.040000 0.080000 0
0.060000 0.080000 0
0.080000 0.080000 0
0.100000 0.080000 0
0.120000 0.080000 0
0.140000 0.080000 0
0.160000 0.080000 0
0.180000 0.080000 0
0.200000 0.080000 0
0.220000 0.080000 0
0.240000 0.080000 0
0.260000 0.080000 0
0.280000 0.080000 0
0.300000 0.080000 0
0.320000 0.080000 0
0.340000 0.080000 0
0.360000 0.080000 0
0.380000 0.080000 0
0.400000 0.080000 0
0.420000 0.080000 0
0.440000 0.080000 0
0.460000 0.080000 0
0.480000 0.080000 0
0.500000 0.080000 0
0.520000 0.080000 0
0.540000 0.080000 0
0.560000 0.080000 0
0.580000 0.080000 0
0.600000 0.080000 0
0.620000 0.080000 0
0.640000 0.080000 0
0.660000 0.080000 0
0.680000 0.080000 0
0.700000 0.080000 0
0.720000 0.080000 0
0.740000 0.080000 0
0.760000 0.080000 0
0.780000 0.080000 0
0.800000 0.080000 0
0.820000 0.080000 0
0.840000 0.080000 0
0.860000 0.080000 0
0.880000 0.080000 0
0.900000 0.080000 0
0.920000 0.080000 0
0.940000 0.080000 0
0.960000 0.080000 0
0.980000 0.080000 0
1.000000 0.080000 0
0.000000 0.100000 0
0.020000 0.100000 0
0.040000 0.100000 0
0.060000 0.100000 0
0.080000 0.100000 0
0.100000 0.100000 0
0.120000 0.100000 0
0.140000 0.100000 0
0.160000 0.100000 0
0.180000 0.100000 0
0.200000 0.100000 0
0.220000 0.100000 0
0.240000 0.100000 0
0.260000 0.100000 0
0.280000 0.100000 0
0.300000 0.100000 0
0.320000 0.100000 0
0.340000 0.100000 0
0.360000 0.100000 0
0.380000 0.100000 0
0.400000 0.100000 0
0.420000 0.100000 0
0.440000 0.100000 0
0.460000 0.100000 0
0.480000 0.100000 0
0.500000 0.100000 0
0.520000 0.100000 0
0.540000 0.100000 0
0.560000 0.100000 0
0.580000 0.100000 0
0.600000 0.100000 0
0.620000 0.100000 0
0.640000 0.100000 0
0.660000 0.100000 0
0.680000 0.100000 0
0.700000 0.100000 0
0.720000 0.100000 0
0.740000 0.100000 0
0.760000 0.100000 0
0.780000 0.100000 0
0.800000 0.100000 0
0.820000 0.100000 0
0.840000 0.100000 0
0.860000 0.100000 0
0.880000 0.100000 0
0.900000 0.100000 0
0.920000 0.100000 0
0.940000 0.100000 0
0.960000 0.100000 0
0.980000 0.100000 0
1.000000 0.100000 0
0.000000 0.120000 0
0.020000 0.120000 0
0.040000 0.120000 0
0.060000 0.120000 0
0.080000 0.120000 0
0.100000 0.120000 0
0.120000 0.120000 0
0.140000 0.120000 0
0.160000 0.120000 0
0.180000 0.120000 0
0.200000 0.120000 0
0.220000 0.120000 0
0.240000 0.120000 0
0.260000 0.120000 0
0.280000 0.120000 0
0.300000 0.120000 0
0.320000 0.120000 0
0.340000 0.120000 0
0.360000 0.120000 0
0.380000 0.120000 0
0.400000 0.120000 0
0.420000 0.120000 0
0.440000 0.120000 0
0.460000 0.120000 0
0.480000 0.120000 0
0.500000 0.120000 0
0.520000 0.120000 0
0.540000 0.120000 0
0.560000 0.120000 0
0.580000 0.120000 0
0.600000 0.120000 0
0.620000 0.120000 0
0.640000 0.120000 0
0.660000 0.120000 0
0.680000 0.120000 0
0.700000 0.120000 0
0.720000 0.120000 0
0.740000 0.120000 0
0.760000 0.120000 0
0.780000 0.120000 0
0.800000 0.120000 0
0.820000 0.120000 0
0.840000 0.120000 0
0.860000 0.120000 0
0.880000 0.120000 0
0.900000 0.120000 0
0.920000 0.120000 0
0.940000 0.120000 0
0.960000 0.120000 0
0.980000 0.120000 0
1.000000 0.120000 0
0.000000 0.140000 0
0.020000 0.140000 0
0.040000 0.140000 0
0.060000 0.140000 0
0.080000 0.140000 0
0.100000 0.140000 0
0.120000 0.140000 0
0.140000 0.140000 0
0.160000 0.140000 0
0.180000 0.140000 0
0.200000 0.140000 0
0.220000 0.140000 0
0.240000 0.140000 0
0.260000 0.140000 0
0.280000 0.140000 0
0.300000 0.140000 0
0.320000 0.140000 0
0.340000 0.140000 0
0.360000 0.140000 0
0.380000 0.140000 0
0.400000 0.140000 0
0.420000 0.140000 0
0.440000 0.140000 0
0.460000 0.140000 0
0.480000 0.140000 0
0.500000 0.140000 0
0.520000 0.140000 0
0.540000 0.140000 0
0.560000 0.140000 0
0.580000 0.140000 0
0.600000 0.140000 0
0.620000 0.140000 0
0.640000 0.140000 0
0.660000 0.140000 0
0.680000 0.140000 0
0.700000 0.140000 0
0.720000 0.140000 0
0.740000 0.140000 0
0.760000 0.140000 0
0.780000 0.140000 0
0.800000 0.140000 0
0.820000 0.140000 0
0.840000 0.140000 0
0.860000 0.140000 0
0.880000 0.140000 0
0.900000 0.140000 0
0.920000 0.140000 0
0.940000 0.140000 0
0.960000 0.140000 0
0.980000 0.140000 0
1.000000 0.140000 0
0.000000 0.160000 0
0.020000 0.160000 0
0.040000 0.160000 0
0.060000 0.160000 0
0.080000 0.160000 0
0.100000 0.160000 0
0.120000 0.160000 0
0.140000 0.160000 0
0.160000 0.160000 0
0.180000 0.160000 0
0.200000 0.160000 0
0.220000 0.160000 0
0.240000 0.160000 0
0.260000 0.160000 0
0.280000 0.160000 0
0.300000 0.160000 0
0.320000 0.160000 0
0.340000 0.160000 0
0.360000 0.160000 0
0.380000 0.160000 0
0.400000 0.160000 0
0.420000 0.160000 0
0.440000 0.160000 0
0.460000 0.160000 0
0.480000 0.160000 0
0.500000 0.160000 0
0.520000 0.160000 0
0.540000 0.160000 0
0.560000 0.160000 0
0.580000 0.160000 0
0.600000 0.160000 0
0.620000 0.160000 0
0.640000 0.160000 0
0.660000 0.160000 0
0.680000 0.160000 0
0.700000 0.160000 0
0.720000 0.160000 0
0.740000 0.160000 0
0.760000 0.160000 0
0.780000 0.160000 0
0.800000 0.160000 0
0.820000 0.160000 0
0.840000 0.160000 0
0.860000 0.160000 0
0.880000 0.160000 0
0.900000 0.160000 0
0.920000 0.160000 0
0.940000 0.160000 0
0.960000 0.160000 0
0.980000 0.160000 0
1.000000 0.160000 0
0.000000 0.180000 0
0.020000 0.180000 0
0.040000 0.180000 0
0.060000 0.180000 0
0.080000 0.180000 0
0.100000 0.180000 0
0.120000 0.180000 0
0.140000 0.180000 0
0.160000 0.180000 0
0.180000 0.180000 0
0.200000 0.180000 0
0.220000 0.180000 0
0.240000 0.180000 0
0.260000 0.180000 0
0.280000 0.180000 0
0.300000 0.180000 0
0.320000 0.180000 0
0.340000 0.180000 0
0.360000 0.180000 0
0.380000 0.180000 0
0.400000 0.180000 0
0.420000 0.180000 0
0.440000 0.180000 0
0.460000 0.180000 0
0.480000 0.180000 0
0.500000 0.180000 0
0.520000 0.180000 0
0.540000 0.180000 0
0.560000 0.180000 0
0.580000 0.180000 0
0.600000 0.180000 0
0.620000 0.180000 0
[...]
POINT_DATA 2601 

VECTORS velocity float
0.000000 0.000000 0
0.000001 0.000000 0
0.000000 0.000000 0
-0.000001 0.000000 0
-0.000003 0.000000 0
-0.000006 0.000000 0
-0.000009 0.000000 0
-0.000014 0.000000 0
-0.000020 0.000000 0
-0.000027 0.000000 0
-0.000033 0.000000 0
-0.000036 0.000000 0
-0.000036 0.000000 0
-0.000032 0.000000 0
-0.000024 0.000000 0
-0.000012 0.000000 0
-0.000001 0.000000 0
0.000008 0.000000 0
0.000013 0.000000 0
0.000015 0.000000 0
0.000016 0.000000 0
0.000015 0.000000 0
0.000014 0.000000 0
0.000012 0.000000 0
0.000010 0.000000 0
0.000007 0.000000 0
0.000005 0.000000 0
0.000004 0.000000 0
0.000002 0.000000 0
0.000001 0.000000 0
0.000001 0.000000 0
0.000001 0.000000 0
0.000001 0.000000 0
0.000001 0.000000 0
0.000001 0.000000 0
0.000001 0.000000 0
0.000001 0.000000 0
0.000001 0.000000 0
0.000001 0.000000 0
0.000001 0.000000 0
0.000001 0.000000 0
0.000001 0.000000 0
0.000001 0.000000 0
0.000001 0.000000 0
0.000001 0.000000 0
0.000001 0.000000 0
0.000000 0.000000 0
0.000000 0.000000 0
0.000000 0.000000 0
0.000000 0.000000 0
0.000000 0.000000 0
0.000000 -0.000001 0
-0.009894 0.009069 0
-0.026079 0.010513 0
-0.039024 0.007303 0
-0.047688 0.004017 0
-0.052511 0.001094 0
-0.053471 -0.002084 0
-0.050275 -0.005963 0
-0.042418 -0.010638 0
-0.029487 -0.015904 0
-0.011327 -0.020592 0
0.011755 -0.023512 0
0.038964 -0.024503 0
0.068269 -0.022818 0
0.096986 -0.018075 0
0.122289 -0.011115 0
0.140777 -0.003430 0
0.149999 0.003185 0
0.149015 0.008080 0
0.139830 0.011632 0
0.124840 0.014234 0
0.105971 0.015968 0
0.085031 0.016673 0
0.063801 0.016144 0
0.043945 0.014339 0
0.026823 0.011504 0
0.013332 0.008153 0
0.003794 0.004914 0
-0.002073 0.002386 0
-0.005036 0.000865 0
-0.006280 0.000141 0
-0.006649 -0.000157 0
-0.006588 -0.000267 0
-0.006307 -0.000312 0
-0.005891 -0.000347 0
-0.005367 -0.000385 0
-0.004750 -0.000424 0
-0.004059 -0.000455 0
-0.003324 -0.000470 0
-0.002582 -0.000461 0
-0.001873 -0.000429 0
-0.001238 -0.000374 0
-0.000706 -0.000301 0
-0.000299 -0.000220 0
-0.000024 -0.000137 0
0.000128 -0.000063 0
0.000175 -0.000006 0
0.000149 0.000030 0
0.000086 0.000040 0
0.000025 0.000026 0
0.000000 0.000000 0
0.000000 -0.000001 0
-0.014820 0.026079 0
-0.036866 0.029130 0
-0.055151 0.021609 0
-0.068306 0.013486 0
-0.076638 0.005782 0
-0.080176 -0.002237 0
-0.079040 -0.011054 0
-0.073358 -0.020789 0
-0.063243 -0.031092 0
-0.048858 -0.041243 0
-0.029685 -0.050293 0
-0.005402 -0.056517 0
0.023664 -0.058024 0
0.057282 -0.054022 0
0.093041 -0.043793 0
0.127294 -0.027711 0
0.154942 -0.008239 0
0.170360 0.010168 0
0.170414 0.024175 0
0.158496 0.033858 0
0.138595 0.039809 0
0.114387 0.042170 0
0.088978 0.041085 0
0.064712 0.036978 0
0.043172 0.030614 0
0.025319 0.023029 0
0.011611 0.015405 0
0.002019 0.008830 0
-0.003896 0.004207 0
-0.006995 0.001614 0
-0.008426 0.000308 0
-0.008903 -0.000342 0
-0.008820 -0.000696 0
-0.008382 -0.000940 0
-0.007686 -0.001141 0
-0.006793 -0.001308 0
-0.005761 -0.001426 0
-0.004655 -0.001477 0
-0.003543 -0.001451 0
-0.002493 -0.001344 0
-0.001566 -0.001167 0
-0.000805 -0.000938 0
-0.000237 -0.000682 0
0.000133 -0.000427 0
0.000319 -0.000199 0
0.000353 -0.000021 0
0.000282 0.000089 0
0.000161 0.000124 0
0.000050 0.000086 0
0.000000 0.000000 0
0.000000 -0.000001 0
-0.015989 0.045935 0
-0.039961 0.050844 0
-0.060284 0.038742 0
-0.075239 0.025503 0
-0.085359 0.012964 0
-0.090995 0.000318 0
-0.092469 -0.012781 0
-0.090318 -0.026435 0
-0.084855 -0.040404 0
-0.076280 -0.054151 0
-0.064562 -0.066969 0
-0.049516 -0.077853 0
-0.030201 -0.085502 0
-0.005652 -0.087452 0
0.024284 -0.081129 0
0.059430 -0.065331 0
0.096123 -0.039881 0
0.128209 -0.007392 0
0.147463 0.023496 0
0.147899 0.046053 0
0.136102 0.060077 0
0.117257 0.066290 0
0.095457 0.065820 0
0.073509 0.060146 0
0.053150 0.050897 0
0.035399 0.039714 0
0.020800 0.028213 0
0.009559 0.017894 0
0.001553 0.009879 0
-0.003466 0.004671 0
-0.006224 0.001751 0
-0.007515 0.000127 0
-0.007896 -0.000833 0
-0.007678 -0.001481 0
-0.007051 -0.001974 0
-0.006138 -0.002349 0
-0.005046 -0.002593 0
-0.003874 -0.002688 0
-0.002717 -0.002623 0
-0.001655 -0.002405 0
-0.000754 -0.002062 0
-0.000055 -0.001630 0
0.000425 -0.001158 0
0.000689 -0.000693 0
0.000757 -0.000283 0
0.000672 0.000032 0
0.000485 0.000222 0
0.000264 0.000272 0
0.000080 0.000187 0
0.000000 0.000000 0
0.000000 -0.000000 0
-0.015046 0.066039 0
-0.038934 0.073425 0
-0.059891 0.056887 0
-0.075492 0.038560 0
-0.086479 0.021538 0
-0.093549 0.004873 0
-0.097194 -0.011731 0
-0.097972 -0.028403 0
-0.096289 -0.045131 0
-0.092334 -0.061537 0
-0.086154 -0.077059 0
-0.077666 -0.090879 0
-0.066559 -0.101888 0
-0.052387 -0.108508 0
-0.033700 -0.108874 0
-0.009183 -0.099550 0
0.021497 -0.077020 0
0.057465 -0.041172 0
0.092210 0.004485 0
0.108950 0.045218 0
0.110252 0.070451 0
0.102181 0.082816 0
0.089169 0.084833 0
0.073972 0.079284 0
0.058363 0.068724 0
0.043534 0.055380 0
0.030252 0.041244 0
0.019003 0.028076 0
0.010078 0.017232 0
0.003587 0.009391 0
-0.000549 0.004357 0
-0.002869 0.001330 0
-0.003929 -0.000533 0
-0.004122 -0.001784 0
-0.003760 -0.002680 0
-0.003049 -0.003313 0
-0.002148 -0.003690 0
-0.001188 -0.003807 0
-0.000278 -0.003669 0
0.000501 -0.003306 0
0.001098 -0.002767 0
0.001487 -0.002117 0
0.001666 -0.001425 0
0.001649 -0.000759 0
0.001466 -0.000182 0
0.001159 0.000251 0
0.000783 0.000497 0
0.000411 0.000529 0
0.000122 0.000351 0
0.000000 0.000000 0
0.000000 0.000000 0
-0.012894 0.084868 0
-0.035448 0.095690 0
-0.056387 0.075299 0
-0.072254 0.052091 0
-0.083800 0.031021 0
-0.092002 0.011033 0
-0.097485 -0.008359 0
-0.100685 -0.027340 0
-0.102133 -0.046042 0
-0.102054 -0.064287 0
-0.100566 -0.081639 0
-0.097664 -0.097449 0
-0.093160 -0.110781 0
-0.086680 -0.120312 0
-0.077492 -0.124333 0
-0.064762 -0.120529 0
-0.046202 -0.106530 0
-0.019730 -0.078104 0
0.014097 -0.027989 0
0.050725 0.028011 0
0.068228 0.066845 0
0.073506 0.087373 0
0.072426 0.094029 0
0.066980 0.090951 0
0.058715 0.081334 0
0.049012 0.067824 0
0.038899 0.052745 0
0.029176 0.038067 0
0.020486 0.025295 0
0.013382 0.015298 0
0.008178 0.008206 0
0.004784 0.003507 0
0.002849 0.000420 0
0.001970 -0.001650 0
0.001803 -0.003046 0
0.002044 -0.003961 0
0.002476 -0.004455 0
0.002943 -0.004558 0
0.003335 -0.004312 0
0.003585 -0.003781 0
0.003662 -0.003047 0
0.003560 -0.002198 0
0.003292 -0.001320 0
0.002881 -0.000493 0
0.002358 0.000208 0
0.001764 0.000715 0
0.001151 0.000970 0
0.000592 0.000933 0
0.000174 0.000599 0
0.000000 0.000001 0
0.000000 0.000001 0
-0.010124 0.101486 0
-0.030465 0.116918 0
-0.051018 0.093694 0
-0.067096 0.065973 0
-0.079139 0.041286 0
-0.088330 0.018559 0
-0.095361 -0.003049 0
-0.100621 -0.023756 0
-0.104689 -0.043762 0
-0.107870 -0.063105 0
-0.110355 -0.081450 0
-0.112245 -0.098285 0
-0.113496 -0.112873 0
-0.113856 -0.124177 0
-0.112746 -0.130792 0
-0.109236 -0.130840 0
-0.101771 -0.122051 0
-0.088738 -0.101471 0
-0.066461 -0.065971 0
-0.028314 -0.008913 0
0.011420 0.047671 0
0.035293 0.078618 0
0.047870 0.091359 0
0.053414 0.092995 0
0.053922 0.086691 0
0.050940 0.075196 0
0.045575 0.061081 0
0.038844 0.046489 0
0.031638 0.033025 0
0.024872 0.021699 0
0.019232 0.012956 0
0.015009 0.006659 0
0.012121 0.002280 0
0.010281 -0.000739 0
0.009227 -0.002754 0
0.008648 -0.003985 0
0.008286 -0.004589 0
0.007971 -0.004666 0
0.007601 -0.004311 0
0.007128 -0.003632 0
0.006537 -0.002742 0
0.005836 -0.001747 0
0.005047 -0.000746 0
0.004192 0.000175 0
0.003299 0.000936 0
0.002400 0.001459 0
0.001540 0.001669 0
0.000785 0.001505 0
0.000231 0.000943 0
0.000000 0.000001 0
0.000000 0.000003 0
-0.007183 0.115333 0
-0.024643 0.136583 0
-0.044489 0.111930 0
-0.060805 0.080211 0
-0.073329 0.052255 0
-0.083372 0.027255 0
-0.091739 0.003932 0
-0.098862 -0.018013 0
-0.105161 -0.038794 0
-0.111112 -0.058620 0
-0.116950 -0.077264 0
-0.122838 -0.094309 0
-0.128841 -0.109171 0
-0.134854 -0.121062 0
-0.140505 -0.128953 0
-0.145010 -0.131505 0
-0.146943 -0.127028 0
-0.144174 -0.113414 0
-0.133315 -0.088414 0
-0.110061 -0.049869 0
-0.065303 0.003239 0
-0.017973 0.050923 0
0.014345 0.075907 0
0.034010 0.084899 0
0.044062 0.083809 0
0.048725 0.076172 0
0.049254 0.064840 0
0.046781 0.052003 0
0.042242 0.039267 0
0.036863 0.027704 0
0.031586 0.018069 0
0.026962 0.010619 0
0.023204 0.005148 0
0.020276 0.001244 0
0.018009 -0.001413 0
0.016229 -0.003021 0
0.014736 -0.003778 0
0.013364 -0.003873 0
0.012028 -0.003469 0
0.010691 -0.002717 0
0.009346 -0.001755 0
0.008005 -0.000708 0
0.006682 0.000324 0
0.005394 0.001254 0
0.004155 0.002000 0
0.002981 0.002475 0
0.001901 0.002585 0
0.000970 0.002242 0
0.000287 0.001383 0
0.000000 0.000001 0
0.000000 0.000004 0
-0.004416 0.126129 0
-0.018488 0.154224 0
-0.037230 0.129855 0
-0.053790 0.094814 0
-0.066802 0.063853 0
-0.077584 0.036968 0
-0.087143 0.012440 0
-0.095976 -0.010333 0
-0.104247 -0.031512 0
-0.112598 -0.051317 0
-0.121303 -0.069723 0
-0.130530 -0.086395 0
-0.140356 -0.100858 0
-0.150728 -0.112512 0
-0.161383 -0.120637 0
-0.171714 -0.124402 0
-0.180571 -0.122887 0
-0.186016 -0.115099 0
-0.184996 -0.100084 0
-0.173369 -0.076925 0
-0.145960 -0.044417 0
-0.097926 -0.001030 0
-0.044990 0.039376 0
-0.001631 0.063278 0
0.026106 0.071976 0
0.041278 0.070004 0
0.048976 0.063025 0
0.051833 0.053501 0
0.050874 0.042943 0
0.047854 0.032354 0
0.043774 0.022857 0
0.039276 0.015041 0
0.034864 0.008965 0
0.030851 0.004457 0
0.027279 0.001294 0
0.024084 -0.000712 0
0.021193 -0.001724 0
0.018550 -0.001958 0
0.016113 -0.001638 0
0.013845 -0.000951 0
0.011733 -0.000056 0
0.009773 0.000916 0
0.007968 0.001865 0
0.006314 0.002702 0
0.004804 0.003349 0
0.003428 0.003713 0
0.002191 0.003680 0
0.001130 0.003119 0
0.000341 0.001912 0
0.000000 0.000001 0
0.000000 0.000005 0
-0.002070 0.133820 0
-0.012419 0.169397 0
-0.029544 0.147232 0
-0.046279 0.109783 0
-0.059809 0.076049 0
-0.071232 0.047596 0
-0.081798 0.022323 0
-0.092102 -0.000909 0
-0.102298 -0.022172 0
-0.112773 -0.041565 0
-0.123952 -0.059333 0
-0.135969 -0.075257 0
-0.148848 -0.088972 0
-0.162477 -0.100035 0
-0.176555 -0.107968 0
-0.190519 -0.112317 0
-0.203436 -0.112726 0
-0.213884 -0.108990 0
-0.219823 -0.101061 0
-0.218610 -0.088905 0
-0.206990 -0.072204 0
-0.180965 -0.050047 0
-0.135935 -0.020387 0
-0.082418 0.013802 0
-0.030214 0.040899 0
0.010212 0.053302 0
0.035767 0.054285 0
0.048820 0.050105 0
0.053659 0.043247 0
0.054623 0.034804 0
0.052870 0.026647 0
0.049196 0.019529 0
0.044563 0.013573 0
0.039753 0.008830 0
0.035090 0.005354 0
0.030623 0.003066 0
0.026416 0.001756 0
0.022568 0.001207 0
0.019103 0.001237 0
0.015998 0.001664 0
0.013232 0.002317 0
0.010786 0.003057 0
0.008641 0.003783 0
0.006763 0.004418 0
0.005113 0.004886 0
0.003653 0.005087 0
0.002360 0.004883 0
0.001245 0.004092 0
0.000392 0.002513 0
0.000000 0.000001 0
0.000000 0.000005 0
-0.000307 0.138547 0
-0.006787 0.181698 0
-0.021695 0.163716 0
-0.038411 0.125078 0
-0.052501 0.088805 0
-0.064473 0.058958 0
-0.075827 0.033310 0
-0.087374 0.010166 0
-0.099438 -0.010842 0
-0.111849 -0.029664 0
-0.125138 -0.046528 0
-0.139443 -0.061499 0
-0.154703 -0.074350 0
-0.170706 -0.084805 0
-0.187049 -0.092595 0
-0.203123 -0.097521 0
-0.218101 -0.099522 0
-0.230952 -0.098712 0
-0.240491 -0.095357 0
-0.245419 -0.089757 0
-0.244296 -0.082063 0
-0.235358 -0.072085 0
-0.216214 -0.059170 0
-0.183159 -0.042443 0
-0.136999 -0.020653 0
-0.086004 0.004022 0
-0.038685 0.024416 0
-0.000582 0.035610 0
0.026464 0.037140 0
0.041302 0.033143 0
0.047449 0.028285 0
0.048041 0.023348 0
0.045579 0.018408 0
0.041765 0.013930 0
0.037299 0.010423 0
0.032527 0.007962 0
0.027809 0.006331 0
0.023445 0.005356 0
0.019526 0.004933 0
0.016061 0.004920 0
0.013044 0.005155 0
0.010461 0.005508 0
0.008273 0.005888 0
0.006426 0.006230 0
0.004855 0.006459 0
0.003499 0.006466 0
0.002311 0.006088 0
0.001268 0.005088 0
0.000427 0.003157 0
0.000000 0.000001 0
0.000000 0.000006 0
0.000944 0.140607 0
-0.001915 0.190784 0
-0.013955 0.178856 0
-0.030293 0.140589 0
-0.044979 0.102112 0
-0.057477 0.070923 0
-0.069424 0.045224 0
-0.081918 0.022702 0
-0.095420 0.002302 0
-0.109825 -0.015865 0
-0.124908 -0.031739 0
-0.141022 -0.045691 0
-0.158040 -0.057709 0
-0.175680 -0.067689 0
-0.193470 -0.075550 0
-0.210783 -0.081265 0
-0.226868 -0.084896 0
-0.240928 -0.086600 0
-0.252210 -0.086594 0
-0.260081 -0.085099 0
-0.264030 -0.082265 0
-0.263569 -0.078129 0
-0.258036 -0.072586 0
-0.246341 -0.065413 0
-0.226995 -0.056256 0
-0.197693 -0.045012 0
-0.159144 -0.031136 0
-0.116365 -0.015044 0
-0.074903 0.001362 0
-0.039982 0.013818 0
-0.012992 0.019909 0
0.006066 0.021399 0
0.017573 0.019848 0
0.022663 0.017110 0
0.023625 0.014592 0
0.022274 0.012556 0
0.019828 0.010838 0
0.017098 0.009489 0
0.014375 0.008620 0
0.011811 0.008146 0
0.009524 0.007917 0
0.007571 0.007828 0
0.005953 0.007818 0
0.004630 0.007837 0
0.003541 0.007813 0
0.002626 0.007631 0
0.001824 0.007114 0
0.001084 0.005975 0
0.000413 0.003782 0
0.000000 0.000001 0
0.000000 0.000007 0
0.001894 0.140462 0
0.001974 0.196597 0
-0.006650 0.192094 0
-0.022059 0.156102 0
-0.037317 0.115990 0
-0.050402 0.083402 0
-0.062817 0.057750 0
-0.075929 0.036163 0
-0.090328 0.017066 0
-0.106212 -0.000176 0
-0.123091 -0.015331 0
-0.140648 -0.028367 0
-0.158881 -0.039692 0
-0.177536 -0.049375 0
-0.196156 -0.057492 0
-0.214179 -0.064123 0
-0.230975 -0.069377 0
-0.245916 -0.073370 0
-0.258447 -0.076204 0
-0.268133 -0.077936 0
-0.274683 -0.078574 0
-0.277914 -0.078080 0
-0.277702 -0.076398 0
-0.273907 -0.073483 0
-0.266298 -0.069301 0
-0.254459 -0.063828 0
-0.238070 -0.056912 0
-0.216137 -0.048631 0
-0.188615 -0.039242 0
-0.156262 -0.028769 0
-0.123210 -0.017764 0
-0.092394 -0.007217 0
-0.065828 0.001811 0
-0.044613 0.007878 0
-0.028687 0.010812 0
-0.017318 0.011759 0
-0.009793 0.011507 0
-0.005378 0.010810 0
-0.002936 0.010219 0
-0.001636 0.009770 0
-0.000948 0.009396 0
-0.000555 0.009079 0
-0.000285 0.008829 0
-0.000057 0.008642 0
0.000150 0.008464 0
0.000329 0.008183 0
0.000448 0.007630 0
0.000445 0.006498 0
0.000263 0.004241 0
0.000000 0.000000 0
0.000000 0.000007 0
0.002609 0.138633 0
0.004857 0.199328 0
-0.000113 0.202888 0
-0.013902 0.171255 0
-0.029569 0.130455 0
-0.043353 0.096423 0
-0.056233 0.070751 0
-0.069785 0.050213 0
-0.084707 0.032585 0
-0.101174 0.016898 0
-0.119144 0.002697 0
-0.137950 -0.009900 0
-0.157166 -0.020820 0
-0.176397 -0.030414 0
-0.195394 -0.038907 0
-0.213745 -0.046446 0
-0.230984 -0.053159 0
-0.246654 -0.059128 0
-0.260323 -0.064377 0
-0.271622 -0.068862 0
-0.280255 -0.072485 0
-0.286000 -0.075109 0
-0.288713 -0.076593 0
-0.288331 -0.076816 0
-0.284873 -0.075704 0
-0.278421 -0.073240 0
-0.269091 -0.069458 0
-0.256852 -0.064499 0
-0.241839 -0.058513 0
-0.224143 -0.051587 0
-0.203717 -0.043959 0
-0.180924 -0.035983 0
-0.156418 -0.027933 0
-0.131394 -0.020031 0
-0.107755 -0.012703 0
-0.086628 -0.006337 0
-0.068537 -0.001102 0
-0.053635 0.002632 0
-0.041611 0.004878 0
-0.032014 0.006158 0
-0.024424 0.006837 0
-0.018470 0.007166 0
-0.013808 0.007319 0
-0.010107 0.007402 0
-0.007088 0.007428 0
-0.004599 0.007333 0
-0.002583 0.006998 0
-0.001072 0.006160 0
-0.000181 0.004226 0
0.000000 -0.000000 0
0.000000 0.000007 0
0.003110 0.135604 0
0.006903 0.199320 0
0.005237 0.210854 0
-0.006033 0.185558 0
-0.021783 0.145441 0
-0.036356 0.110066 0
-0.049764 0.084182 0
-0.063659 0.064637 0
-0.078859 0.048455 0
-0.095504 0.034261 0
-0.113498 0.021445 0
-0.132656 0.009655 0
-0.152365 -0.001244 0
-0.172110 -0.011147 0
-0.191387 -0.020144 0
-0.209833 -0.028532 0
-0.227273 -0.036468 0
-0.243441 -0.044031 0
-0.258035 -0.051235 0
-0.270741 -0.058004 0
-0.281250 -0.064196 0
-0.289271 -0.069622 0
-0.294557 -0.074067 0
-0.296923 -0.077323 0
-0.296267 -0.079211 0
-0.292595 -0.079610 0
-0.286021 -0.078481 0
-0.276752 -0.075882 0
-0.265118 -0.071951 0
-0.251446 -0.066890 0
-0.236012 -0.060982 0
-0.219138 -0.054517 0
-0.201154 -0.047719 0
-0.182339 -0.040785 0
-0.162933 -0.033954 0
-0.143345 -0.027459 0
-0.123974 -0.021486 0
-0.105251 -0.016116 0
-0.087870 -0.011401 0
-0.072193 -0.007417 0
-0.058344 -0.004148 0
-0.046298 -0.001537 0
-0.035928 0.000466 0
-0.027059 0.001922 0
-0.019512 0.002955 0
-0.013153 0.003678 0
-0.007917 0.004103 0
-0.003830 0.004096 0
-0.001065 0.003170 0
0.000000 -0.000002 0
0.000000 0.000007 0
0.003434 0.131730 0
0.008287 0.197201 0
0.009165 0.215824 0
0.001227 0.198276 0
-0.014036 0.160778 0
-0.029383 0.124405 0
-0.043406 0.098054 0
-0.057588 0.079307 0
-0.072894 0.064430 0
-0.089467 0.051537 0
-0.107156 0.039849 0
-0.125738 0.028967 0
-0.144974 0.018635 0
-0.164510 0.008608 0
-0.183805 -0.001184 0
-0.202467 -0.010559 0
-0.220114 -0.019551 0
-0.236548 -0.028365 0
-0.251744 -0.037076 0
-0.265489 -0.045648 0
-0.277516 -0.053955 0
-0.287507 -0.061801 0
-0.295140 -0.068941 0
-0.300119 -0.075106 0
-0.302200 -0.080031 0
-0.301228 -0.083485 0
-0.297157 -0.085300 0
-0.290079 -0.085402 0
-0.280231 -0.083819 0
-0.267960 -0.080693 0
-0.253697 -0.076267 0
-0.237937 -0.070841 0
-0.221153 -0.064731 0
-0.203736 -0.058253 0
-0.185984 -0.051698 0
-0.168160 -0.045296 0
-0.150479 -0.039195 0
-0.133147 -0.033472 0
-0.116291 -0.028180 0
-0.100062 -0.023369 0
-0.084605 -0.019057 0
-0.070043 -0.015250 0
-0.056483 -0.011921 0
-0.044040 -0.009013 0
-0.032824 -0.006477 0
-0.022896 -0.004262 0
-0.014341 -0.002325 0
-0.007332 -0.000692 0
-0.002259 0.000396 0
0.000000 -0.000003 0
0.000000 0.000008 0
0.003611 0.127317 0
0.009129 0.193589 0
0.011857 0.217913 0
0.007270 0.208759 0
-0.006413 0.176051 0
-0.022377 0.139436 0
-0.037084 0.112387 0
-0.051528 0.094126 0
-0.066801 0.080334 0
-0.083117 0.068523 0
-0.100312 0.057716 0
-0.118154 0.047474 0
-0.136415 0.037528 0
-0.154876 0.027684 0
-0.173397 0.017813 0
-0.191710 0.007778 0
-0.209395 -0.002386 0
-0.226155 -0.012401 0
-0.241710 -0.022293 0
-0.256059 -0.032231 0
-0.269114 -0.042178 0
-0.280608 -0.051998 0
-0.290199 -0.061455 0
-0.297526 -0.070263 0
-0.302243 -0.078102 0
-0.304049 -0.084654 0
-0.302732 -0.089629 0
-0.298206 -0.092808 0
-0.290537 -0.094070 0
-0.279948 -0.093424 0
-0.266810 -0.091005 0
-0.251611 -0.087061 0
-0.234889 -0.081920 0
-0.217181 -0.075954 0
-0.198974 -0.069530 0
-0.180684 -0.062964 0
-0.162626 -0.056499 0
-0.145016 -0.050304 0
-0.127968 -0.044486 0
-0.111553 -0.039103 0
-0.095816 -0.034166 0
-0.080797 -0.029659 0
-0.066545 -0.025537 0
-0.053114 -0.021737 0
-0.040573 -0.018189 0
-0.029037 -0.014805 0
-0.018684 -0.011461 0
-0.009838 -0.007986 0
-0.003148 -0.004163 0
0.000000 -0.000005 0
0.000000 0.000008 0
0.003671 0.122601 0
0.009550 0.188955 0
0.013563 0.217684 0
0.011707 0.216545 0
0.000842 0.190425 0
-0.015335 0.155076 0
-0.030712 0.127204 0
-0.045405 0.109025 0
-0.060534 0.096020 0
-0.076442 0.085048 0
-0.092997 0.074886 0
-0.109981 0.065070 0
-0.127203 0.055358 0
-0.144508 0.045590 0
-0.161781 0.035650 0
-0.178913 0.025440 0
-0.195855 0.014894 0
-0.212391 0.003950 0
-0.228127 -0.007171 0
-0.242822 -0.018243 0
-0.256374 -0.029405 0
-0.268795 -0.040716 0
-0.279807 -0.052023 0
-0.289047 -0.063062 0
-0.296117 -0.073509 0
-0.300620 -0.082996 0
-0.302197 -0.091142 0
-0.300583 -0.097596 0
-0.295645 -0.102077 0
-0.287423 -0.104420 0
-0.276140 -0.104604 0
-0.262187 -0.102762 0
-0.246083 -0.099161 0
-0.228411 -0.094168 0
-0.209765 -0.088195 0
-0.190686 -0.081643 0
-0.171626 -0.074863 0
-0.152924 -0.068131 0
-0.134809 -0.061643 0
-0.117424 -0.055520 0
-0.100847 -0.049813 0
-0.085114 -0.044522 0
-0.070244 -0.039604 0
-0.056247 -0.034984 0
-0.043154 -0.030553 0
-0.031045 -0.026151 0
-0.020086 -0.021524 0
-0.010626 -0.016228 0
-0.003400 -0.009442 0
0.000000 -0.000005 0
0.000000 0.000008 0
0.003638 0.117766 0
0.009648 0.183696 0
0.014484 0.215756 0
0.014724 0.221480 0
0.007078 0.203093 0
-0.008283 0.170989 0
-0.024203 0.142457 0
-0.039140 0.123948 0
-0.054049 0.111371 0
-0.069436 0.100986 0
-0.085252 0.091256 0
-0.101312 0.081681 0
-0.117452 0.072055 0
-0.133550 0.062262 0
-0.149529 0.052219 0
-0.165342 0.041852 0
-0.180967 0.031093 0
-0.196370 0.019872 0
-0.211532 0.008139 0
-0.226131 -0.003984 0
-0.239859 -0.016205 0
-0.252591 -0.028565 0
-0.264384 -0.041203 0
-0.274952 -0.053952 0
-0.283909 -0.066529 0
-0.290822 -0.078573 0
-0.295234 -0.089666 0